
                                 *****************
                                 * O   R   C   A *
                                 *****************

                                            #,                                       
                                            ###                                      
                                            ####                                     
                                            #####                                    
                                            ######                                   
                                           ########,                                 
                                     ,,################,,,,,                         
                               ,,#################################,,                 
                          ,,##########################################,,             
                       ,#########################################, ''#####,          
                    ,#############################################,,   '####,        
                  ,##################################################,,,,####,       
                ,###########''''           ''''###############################       
              ,#####''   ,,,,##########,,,,          '''####'''          '####       
            ,##' ,,,,###########################,,,                        '##       
           ' ,,###''''                  '''############,,,                           
         ,,##''                                '''############,,,,        ,,,,,,###''
      ,#''                                            '''#######################'''  
     '                                                          ''''####''''         
             ,#######,   #######,   ,#######,      ##                                
            ,#'     '#,  ##    ##  ,#'     '#,    #''#        ,####,   ,####,        
            ##       ##  ##   ,#'  ##            #'  '#       #'       #'  '#        
            ##       ##  #######   ##           ,######,      #####,   #    #        
            '#,     ,#'  ##    ##  '#,     ,#' ,#      #,     #,   #   #,  ,#        
             '#######'   ##     ##  '#######'  #'      '#     '####' # '####'        



                #########################################################
                #                        -***-                          #
                #          Department of theory and spectroscopy        #
                #                                                       #
                #                      Frank Neese                      #
                #                                                       #
                #     Directorship, Architecture, Infrastructure        #
                #                    SHARK, DRIVERS                     #
                #        Core code/Algorithms in most modules           #
                #                                                       #
                #        Max Planck Institute fuer Kohlenforschung      #
                #                Kaiser Wilhelm Platz 1                 #
                #                 D-45470 Muelheim/Ruhr                 #
                #                      Germany                          #
                #                                                       #
                #                  All rights reserved                  #
                #                        -***-                          #
                #########################################################


                         Program Version 6.0.1  -  RELEASE   -


 With contributions from (in alphabetic order):
[Max-Planck-Institut fuer Kohlenforschung]                               
  Daniel Aravena         : Magnetic Suceptibility                        
  Michael Atanasov       : Ab Initio Ligand Field Theory (pilot matlab implementation)
  Alexander A. Auer      : GIAO ZORA, VPT2 properties, NMR spectrum      
  Ute Becker             : All parallelization in ORCA, NUMFREQ, NUMCALC 
  Giovanni Bistoni       : ED, misc. LED, open-shell LED, HFLD           
  Martin Brehm           : Molecular dynamics                            
  Dmytro Bykov           : pre 5.0 version of the SCF Hessian            
  Marcos Casanova-Páez   : Triplet and SCS-CIS(D). UHF-(DLPNO)-IP/EA/STEOM-CCSD. UHF-CVS-IP/STEOM-CCSD   
  Vijay G. Chilkuri      : MRCI spin determinant printing, contributions to CSF-ICE 
  Pauline Colinet        : FMM embedding                                 
  Dipayan Datta          : RHF DLPNO-CCSD density                        
  Achintya Kumar Dutta   : EOM-CC, STEOM-CC                              
  Nicolas Foglia         : Exact transition moments, OPA infrastructure, MCD improvements    
  Dmitry Ganyushin       : Spin-Orbit,Spin-Spin,Magnetic field MRCI      
  Miquel Garcia-Rates    : C-PCM and meta-GGA Hessian, CCSD/C-PCM, Gaussian charge scheme 
  Tiago L. C. Gouveia    : GS-ROHF, GS-ROCIS                             
  Yang Guo               : DLPNO-NEVPT2, F12-NEVPT2, CIM, IAO-localization        
  Andreas Hansen         : Spin unrestricted coupled pair/coupled cluster methods 
  Ingolf Harden          : AUTO-CI MPn and infrastructure                
  Benjamin Helmich-Paris : MC-RPA, TRAH-(SCF,CASSCF), AVAS, COSX integrals, SCF dyn. polar. 
  Lee Huntington         : MR-EOM, pCC                                   
  Robert Izsak           : Overlap fitted RIJCOSX, COSX-SCS-MP3, EOM     
  Riya Kayal             : Wick's Theorem for AUTO-CI, AUTO-CI UHF-CCSDT 
  Emily Kempfer          : AUTO-CI, RHF CISDT and CCSDT                  
  Christian Kollmar      : KDIIS, OOCD, Brueckner-CCSD(T), CCSD density, CASPT2, CASPT2-K, improved NEVPT2 
  Axel Koslowski         : Symmetry handling                             
  Simone Kossmann        : meta-GGA functionals, TD-DFT gradient, OOMP2, (MP2 Hessian; deprecated post 5.0) 
  Lucas Lang             : DCDCAS                                        
  Marvin Lechner         : AUTO-CI (C++ implementation), FIC-MRCC        
  Spencer Leger          : CASSCF response                               
  Dagmar Lenk            : GEPOL surface, SMD, ORCA-2-JSON               
  Dimitrios Liakos       : Extrapolation schemes; Compound Job, initial MDCI parallelization 
  Dimitrios Manganas     : Further ROCIS development; embedding schemes. LFT, Crystal Embedding 
  Dimitrios Pantazis     : SARC Basis sets                               
  Anastasios Papadopoulos: AUTO-CI, single reference methods and gradients 
  Taras Petrenko         : pre 6.0 DFT Hessian and TD-DFT gradient, (ASA, deprecated), ECA, 1-Electron XAS/XES, NRVS 
  Peter Pinski           : DLPNO-MP2, DLPNO-MP2 Gradient                 
  Christoph Reimann      : Effective Core Potentials                     
  Marius Retegan         : Local ZFS, SOC                                
  Christoph Riplinger    : Optimizer, TS searches, QM/MM, DLPNO-CCSD(T), (RO)-DLPNO pert. Triples 
  Michael Roemelt        : Original ROCIS implementation                 
  Masaaki Saitow         : Open-shell DLPNO-CCSD energy and density      
  Barbara Sandhoefer     : DKH picture change effects                    
  Kantharuban Sivalingam : CASSCF convergence/infrastructure, NEVPT2 and variants, FIC-MRCI 
  Bernardo de Souza      : ESD, SOC TD-DFT                               
  Georgi L. Stoychev     : AutoAux, RI-MP2 NMR, DLPNO-MP2 response, X2C  
  Van Anh Tran           : RI-MP2 g-tensors                              
  Willem Van den Heuvel  : Paramagnetic NMR                              
  Zikuan Wang            : NOTCH, Electric field optimization            
  Frank Wennmohs         : Technical directorship and infrastructure     
  Hang Xu                : AUTO-CI-Response properties                   
                                                                         
[FACCTs GmbH]                                                            
  Markus Bursch, Miquel Garcia-Rates, Christoph Riplinger, Bernardo de Souza, Georgi L. Stoychev 
                                                                 
  APM, Basis sets (HGBS, AHGBS, def-TZVP (Ac-Lr), def2-XVPD (La-Lu)), CI-OPT, improved COSX, DLPNO-Multilevel,           
  DOCKER, DRACO, updates on ESD, GOAT, IRC, LR-CPCM, MBIS, meta-GGA TD-DFT gradient, ML-optimized integration grids, 
  MM, NACMEs, nearIR, NEB, NEB-TS, NL-DFT gradient (VV10), 2- and 3-layer-ONIOM, interface openCOSMO-RS, QMMM,   
  Crystal-QMMM, SF, symmetry and pop. for TD-DFT, r2SCAN hybrids, SOLVATOR                                   
                                                                         
[Other institutions]                                                     
  V. Asgeirsson          : NEB                                           
  Christoph Bannwarth    : sTDA-DFT, sTD-DFT, PBEh-3c, B97-3c, D3        
  Sebastian Ehlert       : rSCAN, r2SCAN, r2SCAN-3c, D4, dhf basis sets  
  Marvin Friede          : D4 for Fr, Ra, Ac-Lr                          
  Lars Goerigk           : TD-DFT with DH, B97 family of functionals     
  Stefan Grimme          : VdW corrections, initial TS optimization, DFT functionals, gCP, sTDA/sTD-DF 
  Waldemar Hujo          : DFT-NL                                        
  H. Jonsson             : NEB                                           
  Holger Kruse           : gCP                                           
  Marcel Mueller         : wB97X-3c, vDZP basis set                      
  Hagen Neugebauer       : wr2SCAN                                       
  Tobias Risthaus        : range-separated hybrid DFT                    
  Lukas Wittmann         : regularized MP2, r2SCAN double-hybrids, wr2SCAN        
                                                                         
We gratefully acknowledge several colleagues who have allowed us to      
interface, adapt or use parts of their codes:                            
  Ed Valeev, F. Pavosevic, A. Kumar             : LibInt (2-el integral package), F12 methods 
  Garnet Chan, S. Sharma, J. Yang, R. Olivares  : DMRG                   
  Ulf Ekstrom                                   : XCFun DFT Library      
  Mihaly Kallay                                 : mrcc  (arbitrary order and MRCC methods)
  Frank Weinhold                                : gennbo (NPA and NBO analysis)           
  Simon Mueller                                 : openCOSMO-RS                            
  Christopher J. Cramer and Donald G. Truhlar   : smd solvation model                     
  S Lehtola, MJT Oliveira, MAL Marques          : LibXC Library                           
  Liviu Ungur et al                             : ANISO software                          


 Your calculation uses the libint2 library for the computation of 2-el integrals
 For citations please refer to: http://libint.valeyev.net

 Your ORCA version has been built with support for libXC version: 6.2.2
 For citations please refer to: https://libxc.gitlab.io

 This ORCA versions uses:
   CBLAS   interface :  Fast vector & matrix operations
   LAPACKE interface :  Fast linear algebra routines
   SCALAPACK package :  Parallel linear algebra routines
   Shared memory     :  Shared parallel matrices
   BLAS/LAPACK       :  OpenBLAS 0.3.27  USE64BITINT DYNAMIC_ARCH NO_AFFINITY SkylakeX SINGLE_THREADED
        Core in use  :  SkylakeX
   Copyright (c) 2011-2014, The OpenBLAS Project


Warning: RI is on but no J-basis has been assigned. Assigning Def2/J (nothing to worry about!)
================================================================================

----- Orbital basis set information -----
Your calculation utilizes the basis: def2-SVP
   F. Weigend and R. Ahlrichs, Phys. Chem. Chem. Phys. 7, 3297 (2005).

----- AuxJ basis set information -----
Your calculation utilizes the auxiliary basis: def2/J
   F. Weigend, Phys. Chem. Chem. Phys. 8, 1057 (2006).

================================================================================
                                        WARNINGS
                       Please study these warnings very carefully!
================================================================================

WARNING: Gradients needed for Numerical Frequencies
  ===> : Setting RunTyp to EnGrad

================================================================================
                                       INPUT FILE
================================================================================
NAME = ../Data/Ethanol.inp
|  1> # avogadro generated ORCA input file 
|  2> # Basic Mode
|  3> # 
|  4> !BP86 DEF2-SVP NUMFREQ
|  5> %ELPROP
|  6>    POLAR 1
|  7> END
|  8> * xyz 0 1
|  9>    C       -4.32757        1.16257       -0.02268
| 10>    C       -2.87154        1.60036       -0.06503
| 11>    H       -4.82840        1.41352       -0.98185
| 12>    H       -4.85575        1.67572        0.80886
| 13>    H       -4.38506        0.06513        0.13706
| 14>    O       -2.80687        2.98394       -0.26834
| 15>    H       -2.36448        1.06909       -0.90114
| 16>    H       -2.38923        1.33694        0.90236
| 17>    H       -1.84187        3.20772       -0.32752
| 18> *
| 19> 
| 20> 
| 21>                          ****END OF INPUT****
================================================================================

                     *******************************
                     * Energy+Gradient Calculation *
                     *******************************

---------------------------------
CARTESIAN COORDINATES (ANGSTROEM)
---------------------------------
  C     -4.327570    1.162570   -0.022680
  C     -2.871540    1.600360   -0.065030
  H     -4.828400    1.413520   -0.981850
  H     -4.855750    1.675720    0.808860
  H     -4.385060    0.065130    0.137060
  O     -2.806870    2.983940   -0.268340
  H     -2.364480    1.069090   -0.901140
  H     -2.389230    1.336940    0.902360
  H     -1.841870    3.207720   -0.327520

----------------------------
CARTESIAN COORDINATES (A.U.)
----------------------------
  NO LB      ZA    FRAG     MASS         X           Y           Z
   0 C     6.0000    0    12.011   -8.177922    2.196939   -0.042859
   1 C     6.0000    0    12.011   -5.426424    3.024242   -0.122889
   2 H     1.0000    0     1.008   -9.124354    2.671166   -1.855428
   3 H     1.0000    0     1.008   -9.176038    3.166652    1.528524
   4 H     1.0000    0     1.008   -8.286562    0.123078    0.259006
   5 O     8.0000    0    15.999   -5.304216    5.638829   -0.507089
   6 H     1.0000    0     1.008   -4.468220    2.020287   -1.702908
   7 H     1.0000    0     1.008   -4.514990    2.526450    1.705213
   8 H     1.0000    0     1.008   -3.480630    6.061712   -0.618923

--------------------------------
INTERNAL COORDINATES (ANGSTROEM)
--------------------------------
 C      0   0   0     0.000000000000     0.00000000     0.00000000
 C      1   0   0     1.521011823590     0.00000000     0.00000000
 H      1   2   0     1.110771659838   110.03238661     0.00000000
 H      1   2   3     1.110745608364   110.06430107   239.70270445
 H      1   2   3     1.110493818668   109.75555019   119.83722955
 O      2   1   3     1.399932420297   109.43463239    60.08531537
 H      2   1   3     1.112851108010   108.64391979   299.99205149
 H      2   1   3     1.112589971463   108.82174939   180.18146294
 H      6   2   1     0.992373297101   106.04828331   182.43199165

---------------------------
INTERNAL COORDINATES (A.U.)
---------------------------
 C      0   0   0     0.000000000000     0.00000000     0.00000000
 C      1   0   0     2.874295793041     0.00000000     0.00000000
 H      1   2   0     2.099054234416   110.03238661     0.00000000
 H      1   2   3     2.099005004264   110.06430107   239.70270445
 H      1   2   3     2.098529190695   109.75555019   119.83722955
 O      2   1   3     2.645488880360   109.43463239    60.08531537
 H      2   1   3     2.102983821970   108.64391979   299.99205149
 H      2   1   3     2.102490345412   108.82174939   180.18146294
 H      6   2   1     1.875313754138   106.04828331   182.43199165

---------------------
BASIS SET INFORMATION
---------------------
There are 3 groups of distinct atoms

 Group   1 Type C   : 7s4p1d contracted to 3s2p1d pattern {511/31/1}
 Group   2 Type H   : 4s1p contracted to 2s1p pattern {31/1}
 Group   3 Type O   : 7s4p1d contracted to 3s2p1d pattern {511/31/1}

Atom   0C    basis set group =>   1
Atom   1C    basis set group =>   1
Atom   2H    basis set group =>   2
Atom   3H    basis set group =>   2
Atom   4H    basis set group =>   2
Atom   5O    basis set group =>   3
Atom   6H    basis set group =>   2
Atom   7H    basis set group =>   2
Atom   8H    basis set group =>   2
---------------------------------
AUXILIARY/J BASIS SET INFORMATION
---------------------------------
There are 3 groups of distinct atoms

 Group   1 Type C   : 12s5p4d2f1g contracted to 6s4p3d1f1g pattern {711111/2111/211/2/1}
 Group   2 Type H   : 5s2p1d contracted to 3s1p1d pattern {311/2/1}
 Group   3 Type O   : 12s5p4d2f1g contracted to 6s4p3d1f1g pattern {711111/2111/211/2/1}

Atom   0C    basis set group =>   1
Atom   1C    basis set group =>   1
Atom   2H    basis set group =>   2
Atom   3H    basis set group =>   2
Atom   4H    basis set group =>   2
Atom   5O    basis set group =>   3
Atom   6H    basis set group =>   2
Atom   7H    basis set group =>   2
Atom   8H    basis set group =>   2
------------------------------------------------------------------------------
                             ORCA STARTUP CALCULATIONS
                           -- RI-GTO INTEGRALS CHOSEN --
------------------------------------------------------------------------------
------------------------------------------------------------------------------
                   ___                                                        
                  /   \      - P O W E R E D   B Y -                         
                 /     \                                                     
                 |  |  |   _    _      __       _____    __    __             
                 |  |  |  | |  | |    /  \     |  _  \  |  |  /  |          
                  \  \/   | |  | |   /    \    | | | |  |  | /  /          
                 / \  \   | |__| |  /  /\  \   | |_| |  |  |/  /          
                |  |  |   |  __  | /  /__\  \  |    /   |      \           
                |  |  |   | |  | | |   __   |  |    \   |  |\   \          
                \     /   | |  | | |  |  |  |  | |\  \  |  | \   \       
                 \___/    |_|  |_| |__|  |__|  |_| \__\ |__|  \__/        
                                                                              
                      - O R C A' S   B I G   F R I E N D -                    
                                      &                                       
                       - I N T E G R A L  F E E D E R -                       
                                                                              
 v1 FN, 2020, v2 2021, v3 2022-2024                                           
------------------------------------------------------------------------------


----------------------
SHARK INTEGRAL PACKAGE
----------------------

Number of atoms                             ...      9
Number of basis functions                   ...     72
Number of shells                            ...     36
Maximum angular momentum                    ...      2
Integral batch strategy                     ... SHARK/LIBINT Hybrid
RI-J (if used) integral strategy            ... SPLIT-RIJ (Revised 2003 algorithm where possible)
Printlevel                                  ...      1
Contraction scheme used                     ... SEGMENTED contraction
Prescreening option                         ... SCHWARTZ
   Thresh                                   ... 2.500e-11
   Tcut                                     ... 2.500e-12
   Tpresel                                  ... 2.500e-12 
Coulomb Range Separation                    ... NOT USED
Exchange Range Separation                   ... NOT USED
Multipole approximations                    ... NOT USED
Finite Nucleus Model                        ... NOT USED
CABS basis                                  ... NOT available
Auxiliary Coulomb fitting basis             ... AVAILABLE
   # of basis functions in Aux-J            ...    213
   # of shells in Aux-J                     ...     75
   Maximum angular momentum in Aux-J        ...      4
Auxiliary J/K fitting basis                 ... NOT available
Auxiliary Correlation fitting basis         ... NOT available
Auxiliary 'external' fitting basis          ... NOT available

Checking pre-screening integrals            ... done (  0.0 sec) Dimension = 36
Check shell pair data                       ... done (  0.0 sec)
Shell pair information
Shell pair cut-off parameter TPreSel        ...   2.5e-12
Total number of shell pairs                 ...       666
Shell pairs after pre-screening             ...       664
Total number of primitive shell pairs       ...      2268
Primitive shell pairs kept                  ...      1953
          la=0 lb=0:    230 shell pairs
          la=1 lb=0:    251 shell pairs
          la=1 lb=1:     78 shell pairs
          la=2 lb=0:     63 shell pairs
          la=2 lb=1:     36 shell pairs
          la=2 lb=2:      6 shell pairs

Calculating one electron integrals          ... done (  0.0 sec)
Calculating RI/J V-Matrix + Cholesky decomp.... done (  0.0 sec)
Calculating Nuclear repulsion               ... done (  0.0 sec) ENN=     81.643740941325 Eh

Diagonalization of the overlap matrix:
Smallest eigenvalue                        ... 3.694e-03
Time for diagonalization                   ...    0.000 sec
Threshold for overlap eigenvalues          ... 1.000e-07
Number of eigenvalues below threshold      ... 0
Time for construction of square roots      ...    0.000 sec
Total time needed                          ...    0.001 sec

-------------------
DFT GRID GENERATION
-------------------

General Integration Accuracy     IntAcc      ... 4.388
Radial Grid Type                 RadialGrid  ... OptM3 with GC (2021)
Angular Grid (max. ang.)         AngularGrid ... 4 (Lebedev-302)
Angular grid pruning method      GridPruning ... 4 (adaptive)
Weight generation scheme         WeightScheme... mBecke (2022)
Basis function cutoff            BFCut       ... 1.0000e-11
Integration weight cutoff        WCut        ... 1.0000e-14
Partially contracted basis set               ... off
Rotationally invariant grid construction     ... off
Angular grids for H and He will be reduced by one unit

Total number of grid points                  ...    37729
Total number of batches                      ...      593
Average number of points per batch           ...       63
Average number of grid points per atom       ...     4192
Initializing property integral containers    ... done (  0.0 sec)

SHARK setup successfully completed in   0.2 seconds

Maximum memory used throughout the entire STARTUP-calculation: 16.0 MB
-------------------------------------------------------------------------------
                                 ORCA GUESS
                   Start orbitals & Density for SCF / CASSCF
-------------------------------------------------------------------------------

------------
SCF SETTINGS
------------
Hamiltonian:
 Density Functional     Method          .... DFT(GTOs)
 Exchange Functional    Exchange        .... B88
   X-Alpha parameter    XAlpha          ....  0.666667
   Becke's b parameter  XBeta           ....  0.004200
 Correlation Functional Correlation     .... P86
 LDA part of GGA corr.  LDAOpt          .... PW91-LDA
 Gradients option       PostSCFGGA      .... off
   NL short-range parameter             ....  4.400000
 RI-approximation to the Coulomb term is turned on
   Number of AuxJ basis functions       .... 213


General Settings:
 Integral files         IntName         .... ../Data/Ethanol
 Hartree-Fock type      HFTyp           .... RHF
 Total Charge           Charge          ....    0
 Multiplicity           Mult            ....    1
 Number of Electrons    NEL             ....   26
 Basis Dimension        Dim             ....   72
 Nuclear Repulsion      ENuc            ....     81.6437409413 Eh

Convergence Acceleration:
 AO-DIIS                CNVDIIS         .... on
   Start iteration      DIISMaxIt       ....    12
   Startup error        DIISStart       ....  0.200000
   # of expansion vecs  DIISMaxEq       ....     5
   Bias factor          DIISBfac        ....   1.050
   Max. coefficient     DIISMaxC        ....  10.000
 MO-DIIS                CNVKDIIS        .... off
 Trust-Rad. Augm. Hess. CNVTRAH         .... auto
   Auto Start mean grad. ratio tolernc. ....  1.125000
   Auto Start start iteration           ....    50
   Auto Start num. interpolation iter.  ....    10
   Max. Number of Micro iterations      ....    24
   Max. Number of Macro iterations      .... Maxiter - #DIIS iter
   Number of Davidson start vectors     ....     2
   Converg. threshold    (grad. norm)   ....   1.000e-05
   Grad. Scal. Fac. for Micro threshold ....   0.100
   Minimum threshold for Micro iter.    ....   1.000e-02
   NR start threshold (gradient norm)   ....   1.000e-04
   Initial trust radius                 ....   0.400
   Minimum AH scaling param. (alpha)    ....   1.000
   Maximum AH scaling param. (alpha)    .... 1000.000
   Quad. conv. algorithm                .... NR
   White noise on init. David. guess    .... on
   Maximum white noise                  ....   0.010
   Pseudo random numbers                .... off
   Inactive MOs                         .... canonical
   Orbital update algorithm             .... Taylor
   Preconditioner                       .... Diag
   Full preconditioner red. dimension   ....   250
 SOSCF                  CNVSOSCF        .... on
   Start iteration      SOSCFMaxIt      ....   150
   Startup grad/error   SOSCFStart      ....  0.003300
   Hessian update       SOSCFHessUp     .... L-BFGS
 Level Shifting         CNVShift        .... on
   Level shift para.    LevelShift      ....    0.2500
   Turn off err/grad.   ShiftErr        ....    0.0010
 Zerner damping         CNVZerner       .... off
 Static damping         CNVDamp         .... on
   Fraction old density DampFac         ....    0.7000
   Max. Damping (<1)    DampMax         ....    0.9800
   Min. Damping (>=0)   DampMin         ....    0.0000
   Turn off err/grad.   DampErr         ....    0.1000

SCF Procedure:
 Maximum # iterations   MaxIter         ....   125
 SCF integral mode      SCFMode         .... Direct
   Integral package                     .... SHARK and LIBINT hybrid scheme
 Reset frequency        DirectResetFreq ....    20
 Integral Threshold     Thresh          ....  2.500e-11 Eh
 Primitive CutOff       TCut            ....  2.500e-12 Eh

Convergence Tolerance:
 Convergence Check Mode ConvCheckMode   .... Total+1el-Energy
 Convergence forced     ConvForced      .... 0
 Energy Change          TolE            ....  1.000e-08 Eh
 1-El. energy change                    ....  1.000e-05 Eh
 Orbital Gradient       TolG            ....  1.000e-05
 Orbital Rotation angle TolX            ....  1.000e-05
 DIIS Error             TolErr          ....  5.000e-07

------------------------------
INITIAL GUESS: MODEL POTENTIAL
------------------------------
Loading Hartree-Fock densities                     ... done
Calculating cut-offs                               ... done
Initializing the effective Hamiltonian             ... done
Setting up the integral package (SHARK)            ... done
Starting the Coulomb interaction                   ... done (   0.0 sec)
Making the grid                                    ... done (   0.0 sec)
Mapping shells                                     ... done
Starting the XC term evaluation                    ... done (   0.0 sec)
  promolecular density results
     # of electrons  =     25.997651433
     EX              =    -20.240168905
     EC              =     -0.918357863
     EX+EC           =    -21.158526769
Transforming the Hamiltonian                       ... done (   0.0 sec)
Diagonalizing the Hamiltonian                      ... done (   0.0 sec)
Back transforming the eigenvectors                 ... done (   0.0 sec)
Now organizing SCF variables                       ... done
                      ------------------
                      INITIAL GUESS DONE (   0.1 sec)
                      ------------------
             **** ENERGY FILE WAS UPDATED (../Data/Ethanol.en.tmp) ****
Finished Guess after   0.1 sec
Maximum memory used throughout the entire GUESS-calculation: 8.2 MB

-------------------------------------------------------------------------------------------
                                      ORCA LEAN-SCF
                              memory conserving SCF solver
-------------------------------------------------------------------------------------------

----------------------------------------D-I-I-S--------------------------------------------
Iteration    Energy (Eh)           Delta-E    RMSDP     MaxDP     DIISErr   Damp  Time(sec)
-------------------------------------------------------------------------------------------
               ***  Starting incremental Fock matrix formation  ***
    1    -154.8046484001428098     0.00e+00  5.83e-03  7.74e-02  2.46e-01  0.700   0.1
    2    -154.8621497221329832    -5.75e-02  3.77e-03  4.29e-02  9.35e-02  0.700   0.1
                               ***Turning on AO-DIIS***
    3    -154.8804905162922410    -1.83e-02  1.35e-03  1.27e-02  2.01e-02  0.700   0.1
    4    -154.8919882566042929    -1.15e-02  1.94e-03  2.05e-02  9.46e-03  0.000   0.1
    5    -154.9187121671744194    -2.67e-02  5.59e-04  5.27e-03  8.80e-03  0.000   0.1
                              *** Initializing SOSCF ***
---------------------------------------S-O-S-C-F--------------------------------------
Iteration    Energy (Eh)           Delta-E    RMSDP     MaxDP     MaxGrad    Time(sec)
--------------------------------------------------------------------------------------
    6    -154.9189365102161275    -2.24e-04  2.06e-04  2.05e-03  1.85e-03     0.1
               *** Restarting incremental Fock matrix formation ***
    7    -154.9189542057202118    -1.77e-05  1.61e-04  1.62e-03  3.64e-04     0.1
    8    -154.9189536611761184     5.45e-07  5.00e-05  7.94e-04  6.28e-04     0.1
    9    -154.9189560934443080    -2.43e-06  2.75e-05  2.87e-04  6.79e-05     0.1
   10    -154.9189561417644256    -4.83e-08  8.34e-06  9.75e-05  5.09e-05     0.1
   11    -154.9189561802797925    -3.85e-08  5.49e-06  6.55e-05  1.76e-05     0.1
   12    -154.9189561833106268    -3.03e-09  2.41e-06  2.47e-05  8.61e-06     0.1
                 **** Energy Check signals convergence ****

               *****************************************************
               *                     SUCCESS                       *
               *           SCF CONVERGED AFTER  12 CYCLES          *
               *****************************************************

             **** ENERGY FILE WAS UPDATED (../Data/Ethanol.en.tmp) ****

----------------
TOTAL SCF ENERGY
----------------

Total Energy       :       -154.91895618331063 Eh           -4215.55911 eV

Components:
Nuclear Repulsion  :         81.64374094132543 Eh            2221.63914 eV
Electronic Energy  :       -236.56269712463606 Eh           -6437.19825 eV
One Electron Energy:       -371.38884702749294 Eh          -10106.00431 eV
Two Electron Energy:        134.82614990285688 Eh            3668.80606 eV

Virial components:
Potential Energy   :       -308.18560100128195 Eh           -8386.15655 eV
Kinetic Energy     :        153.26664481797135 Eh            4170.59743 eV
Virial Ratio       :          2.01078063245465

DFT components:
N(Alpha)           :       12.999992161970 electrons
N(Beta)            :       12.999992161970 electrons
N(Total)           :       25.999984323941 electrons
E(X)               :      -20.718840949193 Eh       
E(C)               :       -0.926425468066 Eh       
E(XC)              :      -21.645266417260 Eh       

---------------
SCF CONVERGENCE
---------------

  Last Energy change         ...    3.0308e-09  Tolerance :   1.0000e-08
  Last MAX-Density change    ...    2.4671e-05  Tolerance :   1.0000e-07
  Last RMS-Density change    ...    2.4083e-06  Tolerance :   5.0000e-09
  Last DIIS Error            ...    1.8533e-03  Tolerance :   5.0000e-07
  Last Orbital Gradient      ...    8.6095e-06  Tolerance :   1.0000e-05
  Last Orbital Rotation      ...    1.4381e-05  Tolerance :   1.0000e-05


----------------
ORBITAL ENERGIES
----------------

  NO   OCC          E(Eh)            E(eV) 
   0   2.0000     -18.767349      -510.6855 
   1   2.0000      -9.951816      -270.8027 
   2   2.0000      -9.903951      -269.5002 
   3   2.0000      -0.916920       -24.9506 
   4   2.0000      -0.665919       -18.1206 
   5   2.0000      -0.534272       -14.5383 
   6   2.0000      -0.460363       -12.5271 
   7   2.0000      -0.413970       -11.2647 
   8   2.0000      -0.353065        -9.6074 
   9   2.0000      -0.335636        -9.1331 
  10   2.0000      -0.317675        -8.6444 
  11   2.0000      -0.277067        -7.5394 
  12   2.0000      -0.213312        -5.8045 
  13   0.0000       0.029161         0.7935 
  14   0.0000       0.065491         1.7821 
  15   0.0000       0.095351         2.5946 
  16   0.0000       0.103745         2.8230 
  17   0.0000       0.116105         3.1594 
  18   0.0000       0.140681         3.8281 
  19   0.0000       0.172085         4.6827 
  20   0.0000       0.193269         5.2591 
  21   0.0000       0.399642        10.8748 
  22   0.0000       0.404670        11.0116 
  23   0.0000       0.429519        11.6878 
*Only the first 10 virtual orbitals were printed.

                    ********************************
                    * MULLIKEN POPULATION ANALYSIS *
                    ********************************

-----------------------
MULLIKEN ATOMIC CHARGES
-----------------------
   0 C :   -0.083951
   1 C :    0.087830
   2 H :    0.040471
   3 H :    0.041059
   4 H :    0.030093
   5 O :   -0.298330
   6 H :    0.005373
   7 H :    0.005286
   8 H :    0.172169
Sum of atomic charges:    0.0000000

--------------------------------
MULLIKEN REDUCED ORBITAL CHARGES
--------------------------------
  0 C s       :     3.044623  s :     3.044623
      pz      :     1.036019  p :     3.014954
      px      :     0.988141
      py      :     0.990794
      dz2     :     0.004640  d :     0.024374
      dxz     :     0.007439
      dyz     :     0.002607
      dx2y2   :     0.006811
      dxy     :     0.002877

  1 C s       :     3.028170  s :     3.028170
      pz      :     1.001289  p :     2.819822
      px      :     1.057171
      py      :     0.761361
      dz2     :     0.008928  d :     0.064178
      dxz     :     0.008299
      dyz     :     0.016449
      dx2y2   :     0.017378
      dxy     :     0.013124

  2 H s       :     0.937717  s :     0.937717
      pz      :     0.010557  p :     0.021812
      px      :     0.005800
      py      :     0.005455

  3 H s       :     0.937108  s :     0.937108
      pz      :     0.009149  p :     0.021833
      px      :     0.005997
      py      :     0.006688

  4 H s       :     0.948009  s :     0.948009
      pz      :     0.005247  p :     0.021898
      px      :     0.004367
      py      :     0.012284

  5 O s       :     3.745398  s :     3.745398
      pz      :     1.884518  p :     4.540020
      px      :     1.328384
      py      :     1.327118
      dz2     :     0.002009  d :     0.012911
      dxz     :     0.000618
      dyz     :     0.002064
      dx2y2   :     0.006156
      dxy     :     0.002065

  6 H s       :     0.974936  s :     0.974936
      pz      :     0.009093  p :     0.019691
      px      :     0.005894
      py      :     0.004705

  7 H s       :     0.975093  s :     0.975093
      pz      :     0.010758  p :     0.019620
      px      :     0.005729
      py      :     0.003134

  8 H s       :     0.763190  s :     0.763190
      pz      :     0.018606  p :     0.064641
      px      :     0.030850
      py      :     0.015185



                     *******************************
                     * LOEWDIN POPULATION ANALYSIS *
                     *******************************

----------------------
LOEWDIN ATOMIC CHARGES
----------------------
   0 C :   -0.085365
   1 C :    0.040988
   2 H :    0.031441
   3 H :    0.031627
   4 H :    0.032876
   5 O :   -0.147608
   6 H :    0.002956
   7 H :    0.002661
   8 H :    0.090426

-------------------------------
LOEWDIN REDUCED ORBITAL CHARGES
-------------------------------
  0 C s       :     2.861435  s :     2.861435
      pz      :     1.072003  p :     3.158474
      px      :     1.031399
      py      :     1.055072
      dz2     :     0.013220  d :     0.065457
      dxz     :     0.017562
      dyz     :     0.007030
      dx2y2   :     0.019532
      dxy     :     0.008113

  1 C s       :     2.851159  s :     2.851159
      pz      :     1.056891  p :     2.961163
      px      :     1.063182
      py      :     0.841090
      dz2     :     0.021805  d :     0.146690
      dxz     :     0.019265
      dyz     :     0.038563
      dx2y2   :     0.041124
      dxy     :     0.025933

  2 H s       :     0.904903  s :     0.904903
      pz      :     0.032258  p :     0.063656
      px      :     0.018140
      py      :     0.013258

  3 H s       :     0.904705  s :     0.904705
      pz      :     0.026987  p :     0.063668
      px      :     0.018779
      py      :     0.017902

  4 H s       :     0.903821  s :     0.903821
      pz      :     0.012838  p :     0.063304
      px      :     0.012588
      py      :     0.037877

  5 O s       :     3.468494  s :     3.468494
      pz      :     1.859012  p :     4.654741
      px      :     1.409130
      py      :     1.386599
      dz2     :     0.003940  d :     0.024374
      dxz     :     0.000323
      dyz     :     0.003171
      dx2y2   :     0.013144
      dxy     :     0.003796

  6 H s       :     0.934032  s :     0.934032
      pz      :     0.027714  p :     0.063012
      px      :     0.017963
      py      :     0.017334

  7 H s       :     0.934257  s :     0.934257
      pz      :     0.034160  p :     0.063082
      px      :     0.017461
      py      :     0.011461

  8 H s       :     0.743683  s :     0.743683
      pz      :     0.046734  p :     0.165891
      px      :     0.086017
      py      :     0.033141



                      *****************************
                      * MAYER POPULATION ANALYSIS *
                      *****************************

  NA   - Mulliken gross atomic population
  ZA   - Total nuclear charge
  QA   - Mulliken gross atomic charge
  VA   - Mayer's total valence
  BVA  - Mayer's bonded valence
  FA   - Mayer's free valence

  ATOM       NA         ZA         QA         VA         BVA        FA
  0 C      6.0840     6.0000    -0.0840     4.0040     4.0040     0.0000
  1 C      5.9122     6.0000     0.0878     4.1355     4.1355    -0.0000
  2 H      0.9595     1.0000     0.0405     0.9937     0.9937     0.0000
  3 H      0.9589     1.0000     0.0411     0.9929     0.9929     0.0000
  4 H      0.9699     1.0000     0.0301     0.9869     0.9869     0.0000
  5 O      8.2983     8.0000    -0.2983     2.1006     2.1006     0.0000
  6 H      0.9946     1.0000     0.0054     0.9656     0.9656     0.0000
  7 H      0.9947     1.0000     0.0053     0.9657     0.9657     0.0000
  8 H      0.8278     1.0000     0.1722     1.0077     1.0077     0.0000

  Mayer bond orders larger than 0.100000
B(  0-C ,  1-C ) :   1.1164 B(  0-C ,  2-H ) :   0.9653 B(  0-C ,  3-H ) :   0.9654 
B(  0-C ,  4-H ) :   0.9601 B(  1-C ,  5-O ) :   1.0875 B(  1-C ,  6-H ) :   0.9395 
B(  1-C ,  7-H ) :   0.9385 B(  5-O ,  8-H ) :   0.9715 

-------
TIMINGS
-------

Total SCF time: 0 days 0 hours 0 min 1 sec 

Total time                  ....       1.337 sec
Sum of individual times     ....       1.311 sec  ( 98.0%)

SCF preparation             ....       0.026 sec  (  1.9%)
Fock matrix formation       ....       1.270 sec  ( 95.0%)
  Startup                   ....       0.001 sec  (  0.1% of F)
  Split-RI-J                ....       0.206 sec  ( 16.2% of F)
  XC integration            ....       1.057 sec  ( 83.2% of F)
    Basis function eval.    ....       0.446 sec  ( 42.2% of XC)
    Density eval.           ....       0.174 sec  ( 16.4% of XC)
    XC-Functional eval.     ....       0.141 sec  ( 13.4% of XC)
    XC-Potential eval.      ....       0.252 sec  ( 23.9% of XC)
Diagonalization             ....       0.000 sec  (  0.0%)
Density matrix formation    ....       0.002 sec  (  0.2%)
Total Energy calculation    ....       0.000 sec  (  0.0%)
Population analysis         ....       0.001 sec  (  0.1%)
Orbital Transformation      ....       0.001 sec  (  0.1%)
Orbital Orthonormalization  ....       0.000 sec  (  0.0%)
DIIS solution               ....       0.005 sec  (  0.4%)
SOSCF solution              ....       0.003 sec  (  0.2%)
Finished LeanSCF after   1.3 sec

Maximum memory used throughout the entire LEANSCF-calculation: 8.2 MB

-------------------------   --------------------
FINAL SINGLE POINT ENERGY      -154.918956183311
-------------------------   --------------------

------------------------------------------------------------------------------
                         ORCA SCF GRADIENT CALCULATION
------------------------------------------------------------------------------

Nuc. rep. gradient        (SHARK) ... done (  0.0 sec)
HCore & Overlap gradient  (SHARK) ... done (  0.0 sec)
Split-RIJ-J gradient      (SHARK) ... done (  0.1 sec)
XC gradient                       ... done (  0.6 sec)

------------------
CARTESIAN GRADIENT
------------------

   1   C   :   -0.000793163    0.000183033   -0.000164384
   2   C   :    0.004708849    0.006119726   -0.000539436
   3   H   :    0.000949867    0.000215058   -0.001932703
   4   H   :    0.000960187    0.000796515    0.001783947
   5   H   :    0.001594711   -0.001121064    0.000113457
   6   O   :   -0.015883384   -0.019982834    0.003788792
   7   H   :   -0.003952341    0.006377424   -0.001036038
   8   H   :   -0.003973038    0.006692159   -0.001242172
   9   H   :    0.016388312    0.000719983   -0.000771464

Difference to translation invariance:
           :    0.0000000000   -0.0000000000    0.0000000000

Difference to rotation invariance:
           :   -0.0000424841    0.0000177051    0.0000628286

Norm of the Cartesian gradient     ...    0.0336000011
RMS gradient                       ...    0.0064663232
MAX gradient                       ...    0.0199828339

-------
TIMINGS
-------

Total SCF gradient time     ....        0.692 sec

Densities                   ....       0.000 sec  (  0.0%)
One electron gradient       ....       0.016 sec  (  2.3%)
RI-J Coulomb gradient       ....       0.120 sec  ( 17.3%)
XC gradient                 ....       0.556 sec  ( 80.3%)

Maximum memory used throughout the entire SCFGRAD-calculation: 10.6 MB
------------------------------------------------------------------------------
                            ORCA SCF RESPONSE CALCULATION
------------------------------------------------------------------------------

GBWName                                 ... ../Data/Ethanol.gbw
Number of atoms                         ...      9
Number of basis functions               ...     72
Max core memory                         ...   1024 MB

Electric field perturbation             ... YES
Quadrupolar field perturbation          ...  NO
Magnetic field perturbation (no GIAO)   ...  NO
Magnetic field perturbation (with GIAO) ...  NO
Linear momentum (velocity) perturbation ...  NO
Spin-orbit coupling perturbation        ...  NO
Choice of electric origin               ... Center of mass
Position of electric origin             ...    -6.243399     3.682067    -0.234294
Choice of magnetic origin               ... GIAO
Position of magnetic origin             ...     0.000000     0.000000     0.000000
Nuclear geometric perturbations         ...  NO (  27 perturbations)
Nucleus-orbit perturbations             ...  NO (   0 perturbations)
Spin-dipole/Fermi contact perturbations ...  NO (   0 perturbations)

Total number of real perturbations      ...      3
Total number of imaginary perturbations ...      0
Total number of triplet perturbations   ...      0
Total number of SOC perturbations       ...      0


                                **********************
                                * REAL PERTURBATIONS *
                                **********************



-------------------
SHARK CP-SCF DRIVER
-------------------

Dimension of the orbital basis          ...     72
Dimension of the CPSCF-problem          ...    767
Number of operators                     ...      1
Max. number of iterations               ...    128
Convergence Tolerance                   ... 1.0e-04
Number of perturbations                 ...      3
Perturbation type                       ... REAL

----------------------------
POPLE LINEAR EQUATION SOLVER
----------------------------

  ITERATION   0:   ||err||_max =   3.3829e+00 (   0.0 sec   0/  3 done)
  ITERATION   1:   ||err||_max =   3.5761e-01 (   0.1 sec   0/  3 done)
  ITERATION   2:   ||err||_max =   6.9019e-02 (   0.1 sec   0/  3 done)
  ITERATION   3:   ||err||_max =   2.4494e-02 (   0.1 sec   0/  3 done)
  ITERATION   4:   ||err||_max =   4.6846e-03 (   0.1 sec   0/  3 done)
  ITERATION   5:   ||err||_max =   6.7046e-04 (   0.1 sec   0/  3 done)
  ITERATION   6:   ||err||_max =   2.0405e-04 (   0.1 sec   1/  3 done)
  ITERATION   7:   ||err||_max =   4.3539e-05 (   0.0 sec   3/  3 done)

CP-SCF equations solved in   0.4 sec
Response densities calculated in   0.0 sec

Maximum memory used throughout the entire SCFRESP-calculation: 6.2 MB

------------------------------------------------------------------------------
                              ORCA PROPERTY CALCULATIONS
------------------------------------------------------------------------------

GBWName                                 ... ../Data/Ethanol.gbw
Number of atoms                         ...      9
Number of basis functions               ...     72
Max core memory                         ...   1024 MB

Electric properties:
Dipole moment                           ... YES
Quadrupole moment                       ...  NO
Static polarizability (Dipole/Dipole)   ... YES
Static polarizability (Dipole/Quad.)    ...  NO
Static polarizability (Quad./Quad.)     ...  NO
Static polarizability (Velocity)        ...  NO

Atomic electric properties:
Dipole moment                           ...  NO
Quadrupole moment                       ...  NO
Static polarizability                   ...  NO

Choice of electric origin               ... Center of mass
Position of electric origin             ...    -6.243399     3.682067    -0.234294

General magnetic properties:
Magnetizability                         ...  NO

EPR properties:
g-Tensor (aka g-matrix)                 ...  NO
Zero-Field splitting spin-orbit         ...  NO
Zero-field splitting spin-spin          ...  NO
Hyperfine couplings                     ...  NO (   0 nuclei)
Quadrupole couplings                    ...  NO (   0 nuclei)
Contact density                         ...  NO (   0 nuclei)

NMR properties:
Chemical shifts                         ...  NO (   0 nuclei)
Spin-rotation constants                 ...  NO (   0 nuclei)
Spin-spin couplings                     ...  NO (   0 nuclei,    0 pairs)

Choice of magnetic origin               ... GIAO
Position of magnetic origin             ...     0.000000     0.000000     0.000000

Properties with geometric perturbations:
SCF Hessian                             ...  NO
IR spectrum                             ...  NO
VCD spectrum                            ...  NO
X-ray spectroscopy properties:
SCF XES/XAS/RIXS spectra                ...  NO


-------------
DIPOLE MOMENT
-------------

Method             : SCF
Type of density    : Electron Density
Multiplicity       :   1
Irrep              :   0
Energy             :  -154.9189561833106268 Eh
Relativity type    : 
Basis              : AO
                                X                 Y                 Z
Electronic contribution:      1.288837204       2.436933936      -0.331144685
Nuclear contribution   :     -0.782222131      -2.726670917       0.355938385
                        -----------------------------------------
Total Dipole Moment    :      0.506615073      -0.289736981       0.024793700
                        -----------------------------------------
Magnitude (a.u.)       :      0.584141317
Magnitude (Debye)      :      1.484769231



--------------------
Rotational spectrum 
--------------------
 
Rotational constants in cm-1:             1.192997             0.309667             0.272285 
Rotational constants in MHz :         35765.140338          9283.573738          8162.911065 

Dipole components along the rotational axes: 
x,y,z [a.u.] :    -0.119907     0.571178     0.024479 
x,y,z [Debye]:    -0.304778     1.451819     0.062220 

 

Dipole moment calculation done in   0.0 sec 


---------------------------------------------------
STATIC POLARIZABILITY TENSOR (Dipole/Dipole)
---------------------------------------------------

Method             : SCF
Type of density    : Electron Density
Type of derivative : Electric Field (Direction=X)
Multiplicity       :   1
Irrep              :   0
Relativity type    : 
Basis              : AO

The raw cartesian tensor (atomic units):
      30.636838596         2.287845473        -0.360431720  
       2.287845473        28.604647504        -0.430821864  
      -0.360431720        -0.430821864        26.100468125  
diagonalized tensor: 
      26.028236857        27.142098530        32.171618837  

Orientation: 
      -0.008461503        -0.552328656        -0.833583504  
       0.172226885         0.820351055        -0.545309129  
       0.985020966        -0.148179625         0.088184441  

Isotropic polarizability :  28.44732


Polarizability tensor calculation done in   0.0 sec 

Maximum memory used throughout the entire PROP-calculation: 4.8 MB

----------------------------------------------------------------------------
                           ORCA NUMERICAL FREQUENCIES
----------------------------------------------------------------------------

Number of atoms                ... 9
Central differences            ... used
Number of displacements        ... 54
Numerical increment            ... 5.000e-03 bohr
IR-spectrum generation         ... on
Raman-spectrum generation      ... on
Polarizability calculation     ... 1
Surface Crossing Hessian       ... off

The output will be reduced. Please look at the following files:
SCF program output             ... >../Data/Ethanol.lastscf
Integral program output        ... >../Data/Ethanol.lastint
Gradient program output        ... >../Data/Ethanol.lastgrad
Dipole moment program output   ... >../Data/Ethanol.lastmom

	<< Calculating gradient on displaced geometry   1 (of  54) >>
	<< Calculating gradient on displaced geometry   2 (of  54) >>
	<< Calculating gradient on displaced geometry   3 (of  54) >>
	<< Calculating gradient on displaced geometry   4 (of  54) >>
	<< Calculating gradient on displaced geometry   5 (of  54) >>
	<< Calculating gradient on displaced geometry   6 (of  54) >>
	<< Calculating gradient on displaced geometry   7 (of  54) >>
	<< Calculating gradient on displaced geometry   8 (of  54) >>
	<< Calculating gradient on displaced geometry   9 (of  54) >>
	<< Calculating gradient on displaced geometry  10 (of  54) >>
	<< Calculating gradient on displaced geometry  11 (of  54) >>
	<< Calculating gradient on displaced geometry  12 (of  54) >>
	<< Calculating gradient on displaced geometry  13 (of  54) >>
	<< Calculating gradient on displaced geometry  14 (of  54) >>
	<< Calculating gradient on displaced geometry  15 (of  54) >>
	<< Calculating gradient on displaced geometry  16 (of  54) >>
	<< Calculating gradient on displaced geometry  17 (of  54) >>
	<< Calculating gradient on displaced geometry  18 (of  54) >>
	<< Calculating gradient on displaced geometry  19 (of  54) >>
	<< Calculating gradient on displaced geometry  20 (of  54) >>
	<< Calculating gradient on displaced geometry  21 (of  54) >>
	<< Calculating gradient on displaced geometry  22 (of  54) >>
	<< Calculating gradient on displaced geometry  23 (of  54) >>
	<< Calculating gradient on displaced geometry  24 (of  54) >>
	<< Calculating gradient on displaced geometry  25 (of  54) >>
	<< Calculating gradient on displaced geometry  26 (of  54) >>
	<< Calculating gradient on displaced geometry  27 (of  54) >>
	<< Calculating gradient on displaced geometry  28 (of  54) >>
	<< Calculating gradient on displaced geometry  29 (of  54) >>
	<< Calculating gradient on displaced geometry  30 (of  54) >>
	<< Calculating gradient on displaced geometry  31 (of  54) >>
	<< Calculating gradient on displaced geometry  32 (of  54) >>
	<< Calculating gradient on displaced geometry  33 (of  54) >>
	<< Calculating gradient on displaced geometry  34 (of  54) >>
	<< Calculating gradient on displaced geometry  35 (of  54) >>
	<< Calculating gradient on displaced geometry  36 (of  54) >>
	<< Calculating gradient on displaced geometry  37 (of  54) >>
	<< Calculating gradient on displaced geometry  38 (of  54) >>
	<< Calculating gradient on displaced geometry  39 (of  54) >>
	<< Calculating gradient on displaced geometry  40 (of  54) >>
	<< Calculating gradient on displaced geometry  41 (of  54) >>
	<< Calculating gradient on displaced geometry  42 (of  54) >>
	<< Calculating gradient on displaced geometry  43 (of  54) >>
	<< Calculating gradient on displaced geometry  44 (of  54) >>
	<< Calculating gradient on displaced geometry  45 (of  54) >>
	<< Calculating gradient on displaced geometry  46 (of  54) >>
	<< Calculating gradient on displaced geometry  47 (of  54) >>
	<< Calculating gradient on displaced geometry  48 (of  54) >>
	<< Calculating gradient on displaced geometry  49 (of  54) >>
	<< Calculating gradient on displaced geometry  50 (of  54) >>
	<< Calculating gradient on displaced geometry  51 (of  54) >>
	<< Calculating gradient on displaced geometry  52 (of  54) >>
	<< Calculating gradient on displaced geometry  53 (of  54) >>
	<< Calculating gradient on displaced geometry  54 (of  54) >>

-----------------------
VIBRATIONAL FREQUENCIES
-----------------------

Scaling factor for frequencies =  1.000000000  (already applied!)

     0:       0.00 cm**-1
     1:       0.00 cm**-1
     2:       0.00 cm**-1
     3:       0.00 cm**-1
     4:       0.00 cm**-1
     5:       0.00 cm**-1
     6:     292.79 cm**-1
     7:     407.67 cm**-1
     8:     568.98 cm**-1
     9:     795.92 cm**-1
    10:     899.26 cm**-1
    11:    1044.32 cm**-1
    12:    1148.21 cm**-1
    13:    1162.30 cm**-1
    14:    1250.73 cm**-1
    15:    1281.69 cm**-1
    16:    1332.92 cm**-1
    17:    1408.78 cm**-1
    18:    1425.01 cm**-1
    19:    1430.16 cm**-1
    20:    1457.29 cm**-1
    21:    2918.57 cm**-1
    22:    2951.91 cm**-1
    23:    2960.28 cm**-1
    24:    3046.94 cm**-1
    25:    3047.82 cm**-1
    26:    3465.46 cm**-1


------------
NORMAL MODES
------------

These modes are the Cartesian displacements weighted by the diagonal matrix
M(i,i)=1/sqrt(m[i]) where m[i] is the mass of the displaced atom
Thus, these vectors are normalized but *not* orthogonal

                  0          1          2          3          4          5    
      0       0.000000   0.000000   0.000000   0.000000   0.000000   0.000000
      1       0.000000   0.000000   0.000000   0.000000   0.000000   0.000000
      2       0.000000   0.000000   0.000000   0.000000   0.000000   0.000000
      3       0.000000   0.000000   0.000000   0.000000   0.000000   0.000000
      4       0.000000   0.000000   0.000000   0.000000   0.000000   0.000000
      5       0.000000   0.000000   0.000000   0.000000   0.000000   0.000000
      6       0.000000   0.000000   0.000000   0.000000   0.000000   0.000000
      7       0.000000   0.000000   0.000000   0.000000   0.000000   0.000000
      8       0.000000   0.000000   0.000000   0.000000   0.000000   0.000000
      9       0.000000   0.000000   0.000000   0.000000   0.000000   0.000000
     10       0.000000   0.000000   0.000000   0.000000   0.000000   0.000000
     11       0.000000   0.000000   0.000000   0.000000   0.000000   0.000000
     12       0.000000   0.000000   0.000000   0.000000   0.000000   0.000000
     13       0.000000   0.000000   0.000000   0.000000   0.000000   0.000000
     14       0.000000   0.000000   0.000000   0.000000   0.000000   0.000000
     15       0.000000   0.000000   0.000000   0.000000   0.000000   0.000000
     16       0.000000   0.000000   0.000000   0.000000   0.000000   0.000000
     17       0.000000   0.000000   0.000000   0.000000   0.000000   0.000000
     18       0.000000   0.000000   0.000000   0.000000   0.000000   0.000000
     19       0.000000   0.000000   0.000000   0.000000   0.000000   0.000000
     20       0.000000   0.000000   0.000000   0.000000   0.000000   0.000000
     21       0.000000   0.000000   0.000000   0.000000   0.000000   0.000000
     22       0.000000   0.000000   0.000000   0.000000   0.000000   0.000000
     23       0.000000   0.000000   0.000000   0.000000   0.000000   0.000000
     24       0.000000   0.000000   0.000000   0.000000   0.000000   0.000000
     25       0.000000   0.000000   0.000000   0.000000   0.000000   0.000000
     26       0.000000   0.000000   0.000000   0.000000   0.000000   0.000000
                  6          7          8          9         10         11    
      0       0.001325  -0.094380  -0.000619  -0.001301   0.135171  -0.174344
      1       0.001234  -0.168983   0.004956   0.005849   0.164931   0.079006
      2       0.001702   0.024119   0.029209   0.046989  -0.022180  -0.014837
      3      -0.001319  -0.149993   0.002179  -0.000398  -0.110243   0.201349
      4       0.010391   0.114472  -0.003266   0.007747   0.051340   0.006836
      5       0.073940  -0.019043  -0.040687   0.058068  -0.007975   0.003212
      6      -0.044280  -0.271807  -0.069284   0.444619  -0.026487  -0.401218
      7       0.512590  -0.423391   0.005560   0.037207  -0.208436  -0.317707
      8       0.159496   0.049374   0.065196  -0.181536  -0.031032   0.002420
      9       0.044130  -0.268926   0.069605  -0.437960  -0.039036  -0.403500
     10      -0.439721  -0.432962   0.015838  -0.085738  -0.195065  -0.314831
     11       0.300908   0.076575   0.066980  -0.179083   0.083989   0.078898
     12       0.005145   0.373116   0.002499  -0.000653   0.819484   0.280461
     13      -0.085653  -0.199041   0.004422  -0.026930   0.126210   0.042749
     14      -0.588548   0.026653   0.026208  -0.176922  -0.005483  -0.004327
     15      -0.000314   0.199932  -0.002958  -0.000160  -0.035013   0.000101
     16      -0.010021   0.111293  -0.010979  -0.001898  -0.123748  -0.049811
     17      -0.063606  -0.014232  -0.059654  -0.023752   0.017723   0.006799
     18       0.055195  -0.180439   0.008784  -0.441100  -0.231776   0.159170
     19      -0.056831   0.054026  -0.042875   0.003932  -0.103126  -0.069108
     20       0.151864   0.000423  -0.019343  -0.219426   0.005446   0.017826
     21      -0.056071  -0.180934  -0.009247   0.452836  -0.222922   0.169577
     22       0.100019   0.053295   0.029387  -0.067326  -0.114732  -0.048969
     23       0.127012  -0.020810  -0.029856  -0.198804   0.015002   0.008123
     24       0.000811   0.267532   0.025987   0.005036  -0.040560  -0.127880
     25      -0.009868  -0.168836   0.141789   0.006978  -0.117738   0.475606
     26      -0.042502   0.033196   0.974411   0.080936   0.010092  -0.072339
                 12         13         14         15         16         17    
      0      -0.005075  -0.036472   0.002511  -0.036999   0.134034  -0.002969
      1       0.006791  -0.067578  -0.019682   0.060146   0.044410  -0.010934
      2       0.115353  -0.022833  -0.081366  -0.015721  -0.004620  -0.042872
      3       0.003480   0.019928   0.001167   0.001074   0.021690   0.019323
      4       0.013777   0.312008   0.008662  -0.089607   0.012626   0.002517
      5      -0.182353  -0.005460   0.015727   0.008543  -0.002623  -0.026293
      6       0.361943  -0.134834  -0.211819  -0.032143  -0.405592   0.177228
      7       0.019360   0.152268   0.030609  -0.170100  -0.283401   0.480836
      8      -0.086129   0.081484   0.046568  -0.073723   0.179101   0.003636
      9      -0.354752   0.043599   0.252591   0.013535  -0.383174  -0.224373
     10       0.002000   0.117541   0.031716  -0.122334  -0.301623  -0.411033
     11      -0.117906  -0.073933   0.048750   0.123454  -0.107224   0.079295
     12      -0.024770  -0.257821   0.002596   0.169467  -0.601319   0.019816
     13      -0.040814  -0.028023   0.010249   0.041692   0.069489   0.094860
     14      -0.230862   0.072449   0.119010  -0.008347  -0.036585   0.690780
     15       0.001452   0.003313   0.002444  -0.037746  -0.019626  -0.008634
     16      -0.021231  -0.234184   0.005824   0.049000   0.013201   0.008258
     17       0.060994   0.025664   0.032548  -0.000219  -0.000332   0.000599
     18       0.245427   0.162108  -0.438073   0.323098  -0.108273   0.028392
     19      -0.404885   0.528795  -0.570238   0.173084  -0.098337  -0.054478
     20       0.224253  -0.085153   0.099408   0.031852  -0.009105   0.010110
     21      -0.222387   0.319356   0.328503   0.404157  -0.087172  -0.078209
     22       0.532768   0.383161   0.470300   0.320093  -0.053762  -0.046634
     23       0.074825  -0.111155  -0.035372  -0.079519   0.033624   0.007258
     24      -0.009505   0.012130  -0.016420   0.149069   0.041492   0.019314
     25      -0.016533  -0.349313   0.066242  -0.669123  -0.221523  -0.094326
     26      -0.033927   0.046087  -0.012835   0.095289   0.031757   0.023555
                 18         19         20         21         22         23    
      0      -0.024434  -0.045073  -0.042433   0.001295  -0.045670  -0.003360
      1      -0.046870   0.011429   0.002914  -0.007113  -0.014479  -0.000097
      2       0.015588  -0.000489   0.003300   0.001712   0.000072   0.014737
      3       0.109021   0.102074   0.034564  -0.051957   0.001175   0.000503
      4       0.027845   0.004025   0.107929   0.037595  -0.000331  -0.012547
      5       0.001207   0.000824  -0.013709  -0.003216   0.005476  -0.093782
      6      -0.244002   0.235775   0.248108  -0.007832   0.254107  -0.035749
      7       0.293205  -0.208335  -0.215762   0.003378  -0.134862   0.021347
      8       0.210595  -0.196145  -0.200638  -0.020432   0.508831  -0.073606
      9      -0.175835   0.225249   0.253596  -0.003398   0.259579   0.067661
     10       0.363227  -0.131597  -0.098123   0.005594  -0.265402  -0.069775
     11      -0.329802   0.249071   0.246514   0.011014  -0.425901  -0.108619
     12       0.349402  -0.104695  -0.152767  -0.001773   0.024038   0.002401
     13      -0.074530   0.005203   0.001801   0.068254   0.570754   0.045286
     14      -0.106468  -0.014575  -0.046147  -0.010294  -0.083116  -0.001545
     15      -0.042146  -0.014639  -0.027188   0.000444   0.000668  -0.000321
     16       0.031987  -0.001246   0.012136   0.003047   0.000368   0.000299
     17      -0.005136   0.000073  -0.002432  -0.000463  -0.000078  -0.000074
     18      -0.176940  -0.411973   0.072105   0.321316   0.012220  -0.318418
     19      -0.194586   0.138388  -0.419724  -0.339255  -0.010660   0.311269
     20      -0.036342  -0.381510   0.326346  -0.552688  -0.018063   0.505115
     21      -0.184028  -0.428990   0.059461   0.285682  -0.023592   0.319216
     22      -0.203545   0.227527  -0.531884  -0.156536   0.012877  -0.162923
     23       0.085791   0.312893  -0.190553   0.600339  -0.046755   0.615176
     24       0.092440   0.037777   0.044782   0.002635  -0.006779   0.004020
     25      -0.464771  -0.195560  -0.249709   0.006985  -0.002068   0.000715
     26       0.057611   0.025109   0.027114  -0.002667   0.000132   0.006539
                 24         25         26    
      0       0.026035   0.006023  -0.000463
      1      -0.088157  -0.011848   0.000887
      2      -0.013141   0.091583  -0.000079
      3       0.004347   0.001514   0.002043
      4      -0.005018   0.000500  -0.001810
      5      -0.003105   0.016502  -0.000000
      6      -0.084545  -0.352672  -0.001375
      7       0.031139   0.178481  -0.000709
      8      -0.174686  -0.670365  -0.002563
      9      -0.278658   0.267043  -0.001991
     10       0.263044  -0.263942   0.000698
     11       0.447588  -0.407501   0.002750
     12       0.044494   0.012854   0.001970
     13       0.764451   0.228818  -0.007239
     14      -0.115451  -0.020007   0.000738
     15       0.000244   0.000154   0.059804
     16       0.000638   0.000097   0.017063
     17      -0.000027  -0.000342  -0.004305
     18      -0.034108   0.041907  -0.001282
     19       0.034277  -0.037810  -0.004423
     20       0.054531  -0.067458   0.000353
     21      -0.009423  -0.059119   0.001188
     22       0.007849   0.028628  -0.007770
     23      -0.018532  -0.116295   0.005378
     24      -0.003656  -0.002267  -0.966547
     25      -0.000649  -0.000490  -0.240378
     26       0.000552  -0.000852   0.062611


-----------
IR SPECTRUM
-----------

 Mode   freq       eps      Int      T**2         TX        TY        TZ
       cm**-1   L/(mol*cm) km/mol    a.u.
----------------------------------------------------------------------------
  6:    292.79   0.000024    0.12  0.000026  (-0.001148  0.002344  0.004366)
  7:    407.67   0.001594    8.06  0.001220  (-0.013367 -0.031951  0.004561)
  8:    568.98   0.022669  114.56  0.012433  ( 0.002225  0.017590  0.110084)
  9:    795.92   0.000082    0.42  0.000032  ( 0.000754 -0.000499  0.005607)
 10:    899.26   0.000870    4.40  0.000302  ( 0.002803  0.016799 -0.003458)
 11:   1044.32   0.004417   22.32  0.001320  ( 0.012032  0.033808 -0.005675)
 12:   1148.21   0.001567    7.92  0.000426  ( 0.001627  0.008858 -0.018570)
 13:   1162.30   0.009160   46.29  0.002459  ( 0.005788  0.049093 -0.003953)
 14:   1250.73   0.000258    1.31  0.000064  ( 0.002134  0.007430  0.002170)
 15:   1281.69   0.021847  110.40  0.005319  (-0.010150 -0.071255  0.011785)
 16:   1332.92   0.001854    9.37  0.000434  (-0.010706 -0.017845  0.001028)
 17:   1408.78   0.000969    4.90  0.000215  ( 0.001839 -0.000578  0.014526)
 18:   1425.01   0.000708    3.58  0.000155  ( 0.011842 -0.001686 -0.003462)
 19:   1430.16   0.001093    5.52  0.000239  ( 0.006871 -0.013822  0.000511)
 20:   1457.29   0.001191    6.02  0.000255  ( 0.014803  0.005777 -0.001607)
 21:   2918.57   0.015133   76.47  0.001618  (-0.027849  0.028155 -0.007054)
 22:   2951.91   0.003624   18.32  0.000383  (-0.018309 -0.006266  0.002943)
 23:   2960.28   0.015379   77.72  0.001621  (-0.002103 -0.005095 -0.039885)
 24:   3046.94   0.006365   32.17  0.000652  ( 0.009704 -0.023272 -0.004019)
 25:   3047.82   0.008246   41.67  0.000844  ( 0.002711 -0.002719  0.028801)
 26:   3465.46   0.003135   15.84  0.000282  (-0.015464 -0.006395  0.001503)

* The epsilon (eps) is given for a Dirac delta lineshape.
** The dipole moment derivative (T) already includes vibrational overlap.

--------------
RAMAN SPECTRUM  
--------------

 Mode    freq (cm**-1)   Activity   Depolarization
-------------------------------------------------------------------
   6:       292.79      0.054608      0.528561
   7:       407.67      0.356995      0.623665
   8:       568.98      5.080624      0.749131
   9:       795.92      0.321218      0.743464
  10:       899.26      4.378517      0.533356
  11:      1044.32      4.573389      0.156603
  12:      1148.21      2.366532      0.745213
  13:      1162.30      5.047888      0.730132
  14:      1250.73     14.805904      0.748840
  15:      1281.69      5.105864      0.670251
  16:      1332.92      1.467449      0.745356
  17:      1408.78     16.741436      0.747670
  18:      1425.01     12.180519      0.737954
  19:      1430.16     20.726248      0.747132
  20:      1457.29      2.513353      0.578539
  21:      2918.57    148.109859      0.118777
  22:      2951.91    158.298867      0.006987
  23:      2960.28    132.648633      0.749144
  24:      3046.94     68.822251      0.747266
  25:      3047.82     51.559336      0.747784
  26:      3465.46    126.505567      0.300160

The first frequency considered to be a vibration is 6
The total number of vibrations considered is 21


--------------------------
THERMOCHEMISTRY AT 298.15K
--------------------------

Temperature         ...   298.15 K
Pressure            ...     1.00 atm
Total Mass          ...    46.07 AMU
Quasi RRHO          ...     True
Cut-Off Frequency   ...     1.00 cm^-1

Throughout the following assumptions are being made:
  (1) The electronic state is orbitally nondegenerate
  (2) There are no thermally accessible electronically excited states
  (3) Hindered rotations indicated by low frequency modes are not
      treated as such but are treated as vibrations and this may
      cause some error
  (4) All equations used are the standard statistical mechanics
      equations for an ideal gas
  (5) All vibrations are strictly harmonic

freq.     292.79  E(vib)   ...       0.27 
freq.     407.67  E(vib)   ...       0.19 
freq.     568.98  E(vib)   ...       0.11 
freq.     795.92  E(vib)   ...       0.05 
freq.     899.26  E(vib)   ...       0.03 
freq.    1044.32  E(vib)   ...       0.02 
freq.    1148.21  E(vib)   ...       0.01 
freq.    1162.30  E(vib)   ...       0.01 
freq.    1250.73  E(vib)   ...       0.01 
freq.    1281.69  E(vib)   ...       0.01 
freq.    1332.92  E(vib)   ...       0.01 
freq.    1408.78  E(vib)   ...       0.00 
freq.    1425.01  E(vib)   ...       0.00 
freq.    1430.16  E(vib)   ...       0.00 
freq.    1457.29  E(vib)   ...       0.00 
freq.    2918.57  E(vib)   ...       0.00 
freq.    2951.91  E(vib)   ...       0.00 
freq.    2960.28  E(vib)   ...       0.00 
freq.    3046.94  E(vib)   ...       0.00 
freq.    3047.82  E(vib)   ...       0.00 
freq.    3465.46  E(vib)   ...       0.00 

------------
INNER ENERGY
------------

The inner energy is: U= E(el) + E(ZPE) + E(vib) + E(rot) + E(trans)
    E(el)   - is the total energy from the electronic structure calculation
              = E(kin-el) + E(nuc-el) + E(el-el) + E(nuc-nuc)
    E(ZPE)  - the the zero temperature vibrational energy from the frequency calculation
    E(vib)  - the the finite temperature correction to E(ZPE) due to population
              of excited vibrational states
    E(rot)  - is the rotational thermal energy
    E(trans)- is the translational thermal energy

Summary of contributions to the inner energy U:
Electronic energy                ...   -154.91895618 Eh
Zero point energy                ...      0.07813437 Eh      49.03 kcal/mol
Thermal vibrational correction   ...      0.00117585 Eh       0.74 kcal/mol
Thermal rotational correction    ...      0.00141627 Eh       0.89 kcal/mol
Thermal translational correction ...      0.00141627 Eh       0.89 kcal/mol
-----------------------------------------------------------------------
Total thermal energy                   -154.83681342 Eh


Summary of corrections to the electronic energy:
(perhaps to be used in another calculation)
Total thermal correction                  0.00400839 Eh       2.52 kcal/mol
Non-thermal (ZPE) correction              0.07813437 Eh      49.03 kcal/mol
-----------------------------------------------------------------------
Total correction                          0.08214276 Eh      51.55 kcal/mol


--------
ENTHALPY
--------

The enthalpy is H = U + kB*T
                kB is Boltzmann's constant
Total thermal energy              ...   -154.83681342 Eh 
Thermal Enthalpy correction       ...      0.00094421 Eh       0.59 kcal/mol
-----------------------------------------------------------------------
Total Enthalpy                    ...   -154.83586921 Eh


Note: Only C1 symmetry has been detected, increase convergence thresholds 
      if your molecule has a higher symmetry. Symmetry factor of 1.0 is   
      used for the rotational entropy correction. 
 

Note: Rotational entropy computed according to Herzberg 
Infrared and Raman Spectra, Chapter V,1, Van Nostrand Reinhold, 1945 
Point Group:  C1, Symmetry Number:   1  
Rotational constants in cm-1:     1.192997     0.309667     0.272285 

Vibrational entropy computed according to the QRRHO of S. Grimme
Chem.Eur.J. 2012 18 9955 using a reference frequency of 100.0 cm-1


-------
ENTROPY
-------

The entropy contributions are T*S = T*(S(el)+S(vib)+S(rot)+S(trans))
     S(el)   - electronic entropy
     S(vib)  - vibrational entropy
     S(rot)  - rotational entropy
     S(trans)- translational entropy
The entropies will be listed as multiplied by the temperature to get
units of energy

Electronic entropy                ...      0.00000000 Eh      0.00 kcal/mol
Vibrational entropy               ...      0.00170330 Eh      1.07 kcal/mol
Rotational entropy                ...      0.01059506 Eh      6.65 kcal/mol
Translational entropy             ...      0.01777359 Eh     11.15 kcal/mol
-----------------------------------------------------------------------
Final entropy term                ...      0.03007195 Eh     18.87 kcal/mol

In case the symmetry of your molecule has not been determined correctly
or in case you have a reason to use a different symmetry number we print 
out the resulting rotational entropy values for sn=1,12:

 non-linear molecules -----------------------------------
|  sn= 1 | S(rot)=       0.01059506 Eh      6.65 kcal/mol|
|  sn= 2 | S(rot)=       0.00994060 Eh      6.24 kcal/mol|
|  sn= 3 | S(rot)=       0.00955777 Eh      6.00 kcal/mol|
|  sn= 4 | S(rot)=       0.00928615 Eh      5.83 kcal/mol|
|  sn= 5 | S(rot)=       0.00907546 Eh      5.69 kcal/mol|
|  sn= 6 | S(rot)=       0.00890331 Eh      5.59 kcal/mol|
|  sn= 7 | S(rot)=       0.00875777 Eh      5.50 kcal/mol|
|  sn= 8 | S(rot)=       0.00863169 Eh      5.42 kcal/mol|
|  sn= 9 | S(rot)=       0.00852048 Eh      5.35 kcal/mol|
|  sn=10 | S(rot)=       0.00842100 Eh      5.28 kcal/mol|
|  sn=11 | S(rot)=       0.00833101 Eh      5.23 kcal/mol|
|  sn=12 | S(rot)=       0.00824886 Eh      5.18 kcal/mol|
 linear molecules ---------------------------------------
|  Dinfh | S(rot)=       0.00655410 Eh      4.11 kcal/mol|
|  Cinfv | S(rot)=       0.00720855 Eh      4.52 kcal/mol|
 --------------------------------------------------------


-------------------
GIBBS FREE ENERGY
-------------------

The Gibbs free energy is G = H - T*S

Total enthalpy                    ...   -154.83586921 Eh 
Total entropy correction          ...     -0.03007195 Eh    -18.87 kcal/mol
-----------------------------------------------------------------------
Final Gibbs free energy         ...   -154.86594116 Eh

For completeness - the Gibbs free energy minus the electronic energy
G-E(el)                           ...      0.05301502 Eh     33.27 kcal/mol



--------------------------------
SUGGESTED CITATIONS FOR THIS RUN
--------------------------------

Below you find a list of papers that are relevant to this ORCA run
We neither can nor want to force you to cite these papers, but we appreciate if you do
You receive ORCA, which is the product of decades of hard work by many enthusiastic individuals, for free
The only thing we kindly ask in return is that you cite our papers,
We deeply appreciate it, if you show your appreciation for ORCA by not just citing the generic ORCA reference.

Please note that relegating all ORCA citations to the supporting information does *not* help us.
SI sections are not indexed - citations you put there will not count into any citation statistics
But we need these citations in order to attract the funding resources that allow us to do what we are doing

Therefore, if you are a happy ORCA user, please consider citing a few of the papers listed below in the main body of your paper

In addition to the list printed below, the program has created the file ../Data/Ethanol.bibtex that contains the list in bibtex format
You can import this file easily into all common literature databanks and citation aid programs


List of essential papers. We consider these as the minimum necessary citations

  1. Neese,F.
     Software update: the ORCA program system, version 5.0
     WIRES Comput. Molec. Sci., 2022 12(1)e1606
     doi.org/10.1002/wcms.1606

List of papers to cite with high priority. The work reported in these papers was absolutely
necessary for this run to complete.
Our perspective: the developers of density functionals and basis sets usually get cited in chemistry papers
Good! But without the algorithms to do something with them, the functionals or basis sets would not do anything.
Hence, in our opinion, the algorithm design and method developments papers are equally worthy of getting cited

  1. Neese,F.
     An improvement of the resolution of the identity approximation for the formation of the Coulomb matrix
     J. Comp. Chem., 2003 24(14)1740-1747
     doi.org/10.1002/jcc.10318
  2. Bykov,D.; Petrenko,T.; Izsak,R.; Kossmann,S.; Becker,U.; Valeev,E.; Neese,F.
     Efficient implementation of the analytic second derivatives of Hartree-Fock and hybrid DFT energies: a detailed analysis of different approximations
     Molec. Phys., 2015 113 1961-1977
     doi.org/10.1080/00268976.2015.1025114
  3. Neese,F.
     The SHARK Integral Generation and Digestion System
     J. Comp. Chem., 2022  1-16
     doi.org/10.1002/jcc.26942

List of suggested additional citations. These are papers that are important in the 'surrounding' of 
of this run, or papers that preceded the highly important papers. If you like your results we are grateful for a citation.

  1. Neese,F.
     The ORCA program system
     WIRES Comput. Molec. Sci., 2012 2(1)73-78
     doi.org/10.1002/wcms.81
  2. Neese,F.
     Software update: the ORCA program system, version 4.0
     WIRES Comput. Molec. Sci., 2018 8(1)1-6
     doi.org/10.1002/wcms.1327
  3. Neese,F.; Wennmohs,F.; Becker,U.; Riplinger,C.
     The ORCA quantum chemistry program package
     J. Chem. Phys., 2020 152 Art. No. L224108
     doi.org/10.1063/5.0004608

List of optional additional citations

  1. Neese,F.
     Approximate second-order SCF convergence for spin unrestricted wavefunctions
     Chem. Phys. Lett., 2000 325(1-3)93-98
     doi.org/10.1016/s0009-2614(00)00662-x

Timings for individual modules:

Sum of individual times          ...      120.689 sec (=   2.011 min)
Startup calculation              ...        0.373 sec (=   0.006 min)   0.3 %
SCF iterations                   ...        2.880 sec (=   0.048 min)   2.4 %
SCF Response                     ...        0.477 sec (=   0.008 min)   0.4 %
Property calculations            ...        0.047 sec (=   0.001 min)   0.0 %
SCF Gradient evaluation          ...        1.467 sec (=   0.024 min)   1.2 %
Numerical frequency calculation  ...      115.445 sec (=   1.924 min)  95.7 %
                             ****ORCA TERMINATED NORMALLY****
TOTAL RUN TIME: 0 days 0 hours 1 minutes 58 seconds 441 msec
