
                                 *****************
                                 * O   R   C   A *
                                 *****************

                                            #,                                       
                                            ###                                      
                                            ####                                     
                                            #####                                    
                                            ######                                   
                                           ########,                                 
                                     ,,################,,,,,                         
                               ,,#################################,,                 
                          ,,##########################################,,             
                       ,#########################################, ''#####,          
                    ,#############################################,,   '####,        
                  ,##################################################,,,,####,       
                ,###########''''           ''''###############################       
              ,#####''   ,,,,##########,,,,          '''####'''          '####       
            ,##' ,,,,###########################,,,                        '##       
           ' ,,###''''                  '''############,,,                           
         ,,##''                                '''############,,,,        ,,,,,,###''
      ,#''                                            '''#######################'''  
     '                                                          ''''####''''         
             ,#######,   #######,   ,#######,      ##                                
            ,#'     '#,  ##    ##  ,#'     '#,    #''#        ,####,   ,####,        
            ##       ##  ##   ,#'  ##            #'  '#       #'       #'  '#        
            ##       ##  #######   ##           ,######,      #####,   #    #        
            '#,     ,#'  ##    ##  '#,     ,#' ,#      #,     #,   #   #,  ,#        
             '#######'   ##     ##  '#######'  #'      '#     '####' # '####'        



                #########################################################
                #                        -***-                          #
                #          Department of theory and spectroscopy        #
                #                                                       #
                #                      Frank Neese                      #
                #                                                       #
                #     Directorship, Architecture, Infrastructure        #
                #                    SHARK, DRIVERS                     #
                #        Core code/Algorithms in most modules           #
                #                                                       #
                #        Max Planck Institute fuer Kohlenforschung      #
                #                Kaiser Wilhelm Platz 1                 #
                #                 D-45470 Muelheim/Ruhr                 #
                #                      Germany                          #
                #                                                       #
                #                  All rights reserved                  #
                #                        -***-                          #
                #########################################################


                         Program Version 6.0.1  -  RELEASE   -


 With contributions from (in alphabetic order):
[Max-Planck-Institut fuer Kohlenforschung]                               
  Daniel Aravena         : Magnetic Suceptibility                        
  Michael Atanasov       : Ab Initio Ligand Field Theory (pilot matlab implementation)
  Alexander A. Auer      : GIAO ZORA, VPT2 properties, NMR spectrum      
  Ute Becker             : All parallelization in ORCA, NUMFREQ, NUMCALC 
  Giovanni Bistoni       : ED, misc. LED, open-shell LED, HFLD           
  Martin Brehm           : Molecular dynamics                            
  Dmytro Bykov           : pre 5.0 version of the SCF Hessian            
  Marcos Casanova-Páez   : Triplet and SCS-CIS(D). UHF-(DLPNO)-IP/EA/STEOM-CCSD. UHF-CVS-IP/STEOM-CCSD   
  Vijay G. Chilkuri      : MRCI spin determinant printing, contributions to CSF-ICE 
  Pauline Colinet        : FMM embedding                                 
  Dipayan Datta          : RHF DLPNO-CCSD density                        
  Achintya Kumar Dutta   : EOM-CC, STEOM-CC                              
  Nicolas Foglia         : Exact transition moments, OPA infrastructure, MCD improvements    
  Dmitry Ganyushin       : Spin-Orbit,Spin-Spin,Magnetic field MRCI      
  Miquel Garcia-Rates    : C-PCM and meta-GGA Hessian, CCSD/C-PCM, Gaussian charge scheme 
  Tiago L. C. Gouveia    : GS-ROHF, GS-ROCIS                             
  Yang Guo               : DLPNO-NEVPT2, F12-NEVPT2, CIM, IAO-localization        
  Andreas Hansen         : Spin unrestricted coupled pair/coupled cluster methods 
  Ingolf Harden          : AUTO-CI MPn and infrastructure                
  Benjamin Helmich-Paris : MC-RPA, TRAH-(SCF,CASSCF), AVAS, COSX integrals, SCF dyn. polar. 
  Lee Huntington         : MR-EOM, pCC                                   
  Robert Izsak           : Overlap fitted RIJCOSX, COSX-SCS-MP3, EOM     
  Riya Kayal             : Wick's Theorem for AUTO-CI, AUTO-CI UHF-CCSDT 
  Emily Kempfer          : AUTO-CI, RHF CISDT and CCSDT                  
  Christian Kollmar      : KDIIS, OOCD, Brueckner-CCSD(T), CCSD density, CASPT2, CASPT2-K, improved NEVPT2 
  Axel Koslowski         : Symmetry handling                             
  Simone Kossmann        : meta-GGA functionals, TD-DFT gradient, OOMP2, (MP2 Hessian; deprecated post 5.0) 
  Lucas Lang             : DCDCAS                                        
  Marvin Lechner         : AUTO-CI (C++ implementation), FIC-MRCC        
  Spencer Leger          : CASSCF response                               
  Dagmar Lenk            : GEPOL surface, SMD, ORCA-2-JSON               
  Dimitrios Liakos       : Extrapolation schemes; Compound Job, initial MDCI parallelization 
  Dimitrios Manganas     : Further ROCIS development; embedding schemes. LFT, Crystal Embedding 
  Dimitrios Pantazis     : SARC Basis sets                               
  Anastasios Papadopoulos: AUTO-CI, single reference methods and gradients 
  Taras Petrenko         : pre 6.0 DFT Hessian and TD-DFT gradient, (ASA, deprecated), ECA, 1-Electron XAS/XES, NRVS 
  Peter Pinski           : DLPNO-MP2, DLPNO-MP2 Gradient                 
  Christoph Reimann      : Effective Core Potentials                     
  Marius Retegan         : Local ZFS, SOC                                
  Christoph Riplinger    : Optimizer, TS searches, QM/MM, DLPNO-CCSD(T), (RO)-DLPNO pert. Triples 
  Michael Roemelt        : Original ROCIS implementation                 
  Masaaki Saitow         : Open-shell DLPNO-CCSD energy and density      
  Barbara Sandhoefer     : DKH picture change effects                    
  Kantharuban Sivalingam : CASSCF convergence/infrastructure, NEVPT2 and variants, FIC-MRCI 
  Bernardo de Souza      : ESD, SOC TD-DFT                               
  Georgi L. Stoychev     : AutoAux, RI-MP2 NMR, DLPNO-MP2 response, X2C  
  Van Anh Tran           : RI-MP2 g-tensors                              
  Willem Van den Heuvel  : Paramagnetic NMR                              
  Zikuan Wang            : NOTCH, Electric field optimization            
  Frank Wennmohs         : Technical directorship and infrastructure     
  Hang Xu                : AUTO-CI-Response properties                   
                                                                         
[FACCTs GmbH]                                                            
  Markus Bursch, Miquel Garcia-Rates, Christoph Riplinger, Bernardo de Souza, Georgi L. Stoychev 
                                                                 
  APM, Basis sets (HGBS, AHGBS, def-TZVP (Ac-Lr), def2-XVPD (La-Lu)), CI-OPT, improved COSX, DLPNO-Multilevel,           
  DOCKER, DRACO, updates on ESD, GOAT, IRC, LR-CPCM, MBIS, meta-GGA TD-DFT gradient, ML-optimized integration grids, 
  MM, NACMEs, nearIR, NEB, NEB-TS, NL-DFT gradient (VV10), 2- and 3-layer-ONIOM, interface openCOSMO-RS, QMMM,   
  Crystal-QMMM, SF, symmetry and pop. for TD-DFT, r2SCAN hybrids, SOLVATOR                                   
                                                                         
[Other institutions]                                                     
  V. Asgeirsson          : NEB                                           
  Christoph Bannwarth    : sTDA-DFT, sTD-DFT, PBEh-3c, B97-3c, D3        
  Sebastian Ehlert       : rSCAN, r2SCAN, r2SCAN-3c, D4, dhf basis sets  
  Marvin Friede          : D4 for Fr, Ra, Ac-Lr                          
  Lars Goerigk           : TD-DFT with DH, B97 family of functionals     
  Stefan Grimme          : VdW corrections, initial TS optimization, DFT functionals, gCP, sTDA/sTD-DF 
  Waldemar Hujo          : DFT-NL                                        
  H. Jonsson             : NEB                                           
  Holger Kruse           : gCP                                           
  Marcel Mueller         : wB97X-3c, vDZP basis set                      
  Hagen Neugebauer       : wr2SCAN                                       
  Tobias Risthaus        : range-separated hybrid DFT                    
  Lukas Wittmann         : regularized MP2, r2SCAN double-hybrids, wr2SCAN        
                                                                         
We gratefully acknowledge several colleagues who have allowed us to      
interface, adapt or use parts of their codes:                            
  Ed Valeev, F. Pavosevic, A. Kumar             : LibInt (2-el integral package), F12 methods 
  Garnet Chan, S. Sharma, J. Yang, R. Olivares  : DMRG                   
  Ulf Ekstrom                                   : XCFun DFT Library      
  Mihaly Kallay                                 : mrcc  (arbitrary order and MRCC methods)
  Frank Weinhold                                : gennbo (NPA and NBO analysis)           
  Simon Mueller                                 : openCOSMO-RS                            
  Christopher J. Cramer and Donald G. Truhlar   : smd solvation model                     
  S Lehtola, MJT Oliveira, MAL Marques          : LibXC Library                           
  Liviu Ungur et al                             : ANISO software                          


 Your calculation uses the libint2 library for the computation of 2-el integrals
 For citations please refer to: http://libint.valeyev.net

 Your ORCA version has been built with support for libXC version: 6.2.2
 For citations please refer to: https://libxc.gitlab.io

 This ORCA versions uses:
   CBLAS   interface :  Fast vector & matrix operations
   LAPACKE interface :  Fast linear algebra routines
   SCALAPACK package :  Parallel linear algebra routines
   Shared memory     :  Shared parallel matrices
   BLAS/LAPACK       :  OpenBLAS 0.3.27  USE64BITINT DYNAMIC_ARCH NO_AFFINITY SkylakeX SINGLE_THREADED
        Core in use  :  SkylakeX
   Copyright (c) 2011-2014, The OpenBLAS Project


Warning: RI is on but no J-basis has been assigned. Assigning Def2/J (nothing to worry about!)
================================================================================

----- Orbital basis set information -----
Your calculation utilizes the basis: def2-SVP
   F. Weigend and R. Ahlrichs, Phys. Chem. Chem. Phys. 7, 3297 (2005).

----- AuxJ basis set information -----
Your calculation utilizes the auxiliary basis: def2/J
   F. Weigend, Phys. Chem. Chem. Phys. 8, 1057 (2006).

================================================================================
                                        WARNINGS
                       Please study these warnings very carefully!
================================================================================

WARNING: Old DensityContainer found on disk!
         Will remove this file - 
         If you want to keep old densities, please start your calculation with a different basename. 

WARNING: Gradients needed for Numerical Frequencies
  ===> : Setting RunTyp to EnGrad

================================================================================
                                       INPUT FILE
================================================================================
NAME = ./../Data/ethanol_edited.inp
|  1> # avogadro generated ORCA input file 
|  2> # Basic Mode
|  3> # 
|  4> !BP86 DEF2-SVP NUMFREQ 
|  5> 
|  6> * xyz 0 1
|  7>    C       -4.32757        1.16257       -0.02268
|  8>    C       -2.87154        1.60036       -0.06503
|  9>    H       -4.82840        1.41352       -0.98185
| 10>    H       -4.85575        1.67572        0.80886
| 11>    H       -4.38506        0.06513        0.13706
| 12>    O       -2.80687        2.98394       -0.26834
| 13>    H       -2.36448        1.06909       -0.90114
| 14>    H       -2.38923        1.33694        0.90236
| 15>    H       -1.84187        3.20772       -0.32752
| 16> *
| 17> 
| 18> 
| 19>                          ****END OF INPUT****
================================================================================

                     *******************************
                     * Energy+Gradient Calculation *
                     *******************************

---------------------------------
CARTESIAN COORDINATES (ANGSTROEM)
---------------------------------
  C     -4.327570    1.162570   -0.022680
  C     -2.871540    1.600360   -0.065030
  H     -4.828400    1.413520   -0.981850
  H     -4.855750    1.675720    0.808860
  H     -4.385060    0.065130    0.137060
  O     -2.806870    2.983940   -0.268340
  H     -2.364480    1.069090   -0.901140
  H     -2.389230    1.336940    0.902360
  H     -1.841870    3.207720   -0.327520

----------------------------
CARTESIAN COORDINATES (A.U.)
----------------------------
  NO LB      ZA    FRAG     MASS         X           Y           Z
   0 C     6.0000    0    12.011   -8.177922    2.196939   -0.042859
   1 C     6.0000    0    12.011   -5.426424    3.024242   -0.122889
   2 H     1.0000    0     1.008   -9.124354    2.671166   -1.855428
   3 H     1.0000    0     1.008   -9.176038    3.166652    1.528524
   4 H     1.0000    0     1.008   -8.286562    0.123078    0.259006
   5 O     8.0000    0    15.999   -5.304216    5.638829   -0.507089
   6 H     1.0000    0     1.008   -4.468220    2.020287   -1.702908
   7 H     1.0000    0     1.008   -4.514990    2.526450    1.705213
   8 H     1.0000    0     1.008   -3.480630    6.061712   -0.618923

--------------------------------
INTERNAL COORDINATES (ANGSTROEM)
--------------------------------
 C      0   0   0     0.000000000000     0.00000000     0.00000000
 C      1   0   0     1.521011823590     0.00000000     0.00000000
 H      1   2   0     1.110771659838   110.03238661     0.00000000
 H      1   2   3     1.110745608364   110.06430107   239.70270445
 H      1   2   3     1.110493818668   109.75555019   119.83722955
 O      2   1   3     1.399932420297   109.43463239    60.08531537
 H      2   1   3     1.112851108010   108.64391979   299.99205149
 H      2   1   3     1.112589971463   108.82174939   180.18146294
 H      6   2   1     0.992373297101   106.04828331   182.43199165

---------------------------
INTERNAL COORDINATES (A.U.)
---------------------------
 C      0   0   0     0.000000000000     0.00000000     0.00000000
 C      1   0   0     2.874295793041     0.00000000     0.00000000
 H      1   2   0     2.099054234416   110.03238661     0.00000000
 H      1   2   3     2.099005004264   110.06430107   239.70270445
 H      1   2   3     2.098529190695   109.75555019   119.83722955
 O      2   1   3     2.645488880360   109.43463239    60.08531537
 H      2   1   3     2.102983821970   108.64391979   299.99205149
 H      2   1   3     2.102490345412   108.82174939   180.18146294
 H      6   2   1     1.875313754138   106.04828331   182.43199165

---------------------
BASIS SET INFORMATION
---------------------
There are 3 groups of distinct atoms

 Group   1 Type C   : 7s4p1d contracted to 3s2p1d pattern {511/31/1}
 Group   2 Type H   : 4s1p contracted to 2s1p pattern {31/1}
 Group   3 Type O   : 7s4p1d contracted to 3s2p1d pattern {511/31/1}

Atom   0C    basis set group =>   1
Atom   1C    basis set group =>   1
Atom   2H    basis set group =>   2
Atom   3H    basis set group =>   2
Atom   4H    basis set group =>   2
Atom   5O    basis set group =>   3
Atom   6H    basis set group =>   2
Atom   7H    basis set group =>   2
Atom   8H    basis set group =>   2
---------------------------------
AUXILIARY/J BASIS SET INFORMATION
---------------------------------
There are 3 groups of distinct atoms

 Group   1 Type C   : 12s5p4d2f1g contracted to 6s4p3d1f1g pattern {711111/2111/211/2/1}
 Group   2 Type H   : 5s2p1d contracted to 3s1p1d pattern {311/2/1}
 Group   3 Type O   : 12s5p4d2f1g contracted to 6s4p3d1f1g pattern {711111/2111/211/2/1}

Atom   0C    basis set group =>   1
Atom   1C    basis set group =>   1
Atom   2H    basis set group =>   2
Atom   3H    basis set group =>   2
Atom   4H    basis set group =>   2
Atom   5O    basis set group =>   3
Atom   6H    basis set group =>   2
Atom   7H    basis set group =>   2
Atom   8H    basis set group =>   2

Checking for AutoStart:
The File: ./../Data/ethanol_edited.gbw exists
Trying to determine its content:
     ... Fine, the file contains calculation information
     ... Fine, the calculation information was read
     ... Fine, the file contains a basis set
     ... Fine, the basis set was read
     ... Fine, the file contains a geometry
     ... Fine, the geometry was read
     ... Fine, the file contains a set of orbitals
     ... Fine, the orbitals can be read
     => possible old guess file was deleted
     => GBW file was renamed to GES file
     => GES file is set as startup file
     => Guess is set to MORead
     ... now leaving AutoStart

------------------------------------------------------------------------------
                             ORCA STARTUP CALCULATIONS
                           -- RI-GTO INTEGRALS CHOSEN --
------------------------------------------------------------------------------
------------------------------------------------------------------------------
                   ___                                                        
                  /   \      - P O W E R E D   B Y -                         
                 /     \                                                     
                 |  |  |   _    _      __       _____    __    __             
                 |  |  |  | |  | |    /  \     |  _  \  |  |  /  |          
                  \  \/   | |  | |   /    \    | | | |  |  | /  /          
                 / \  \   | |__| |  /  /\  \   | |_| |  |  |/  /          
                |  |  |   |  __  | /  /__\  \  |    /   |      \           
                |  |  |   | |  | | |   __   |  |    \   |  |\   \          
                \     /   | |  | | |  |  |  |  | |\  \  |  | \   \       
                 \___/    |_|  |_| |__|  |__|  |_| \__\ |__|  \__/        
                                                                              
                      - O R C A' S   B I G   F R I E N D -                    
                                      &                                       
                       - I N T E G R A L  F E E D E R -                       
                                                                              
 v1 FN, 2020, v2 2021, v3 2022-2024                                           
------------------------------------------------------------------------------


----------------------
SHARK INTEGRAL PACKAGE
----------------------

Number of atoms                             ...      9
Number of basis functions                   ...     72
Number of shells                            ...     36
Maximum angular momentum                    ...      2
Integral batch strategy                     ... SHARK/LIBINT Hybrid
RI-J (if used) integral strategy            ... SPLIT-RIJ (Revised 2003 algorithm where possible)
Printlevel                                  ...      1
Contraction scheme used                     ... SEGMENTED contraction
Prescreening option                         ... SCHWARTZ
   Thresh                                   ... 2.500e-11
   Tcut                                     ... 2.500e-12
   Tpresel                                  ... 2.500e-12 
Coulomb Range Separation                    ... NOT USED
Exchange Range Separation                   ... NOT USED
Multipole approximations                    ... NOT USED
Finite Nucleus Model                        ... NOT USED
CABS basis                                  ... NOT available
Auxiliary Coulomb fitting basis             ... AVAILABLE
   # of basis functions in Aux-J            ...    213
   # of shells in Aux-J                     ...     75
   Maximum angular momentum in Aux-J        ...      4
Auxiliary J/K fitting basis                 ... NOT available
Auxiliary Correlation fitting basis         ... NOT available
Auxiliary 'external' fitting basis          ... NOT available

Checking pre-screening integrals            ... done (  0.0 sec) Dimension = 36
Check shell pair data                       ... done (  0.0 sec)
Shell pair information
Shell pair cut-off parameter TPreSel        ...   2.5e-12
Total number of shell pairs                 ...       666
Shell pairs after pre-screening             ...       664
Total number of primitive shell pairs       ...      2268
Primitive shell pairs kept                  ...      1953
          la=0 lb=0:    230 shell pairs
          la=1 lb=0:    251 shell pairs
          la=1 lb=1:     78 shell pairs
          la=2 lb=0:     63 shell pairs
          la=2 lb=1:     36 shell pairs
          la=2 lb=2:      6 shell pairs

Calculating one electron integrals          ... done (  0.0 sec)
Calculating RI/J V-Matrix + Cholesky decomp.... done (  0.0 sec)
Calculating Nuclear repulsion               ... done (  0.0 sec) ENN=     81.643740941325 Eh

Diagonalization of the overlap matrix:
Smallest eigenvalue                        ... 3.694e-03
Time for diagonalization                   ...    0.000 sec
Threshold for overlap eigenvalues          ... 1.000e-07
Number of eigenvalues below threshold      ... 0
Time for construction of square roots      ...    0.000 sec
Total time needed                          ...    0.001 sec

-------------------
DFT GRID GENERATION
-------------------

General Integration Accuracy     IntAcc      ... 4.388
Radial Grid Type                 RadialGrid  ... OptM3 with GC (2021)
Angular Grid (max. ang.)         AngularGrid ... 4 (Lebedev-302)
Angular grid pruning method      GridPruning ... 4 (adaptive)
Weight generation scheme         WeightScheme... mBecke (2022)
Basis function cutoff            BFCut       ... 1.0000e-11
Integration weight cutoff        WCut        ... 1.0000e-14
Partially contracted basis set               ... off
Rotationally invariant grid construction     ... off
Angular grids for H and He will be reduced by one unit

Total number of grid points                  ...    37729
Total number of batches                      ...      593
Average number of points per batch           ...       63
Average number of grid points per atom       ...     4192
Initializing property integral containers    ... done (  0.0 sec)

SHARK setup successfully completed in   0.2 seconds

Maximum memory used throughout the entire STARTUP-calculation: 16.0 MB
-------------------------------------------------------------------------------
                                 ORCA GUESS
                   Start orbitals & Density for SCF / CASSCF
-------------------------------------------------------------------------------

------------
SCF SETTINGS
------------
Hamiltonian:
 Density Functional     Method          .... DFT(GTOs)
 Exchange Functional    Exchange        .... B88
   X-Alpha parameter    XAlpha          ....  0.666667
   Becke's b parameter  XBeta           ....  0.004200
 Correlation Functional Correlation     .... P86
 LDA part of GGA corr.  LDAOpt          .... PW91-LDA
 Gradients option       PostSCFGGA      .... off
   NL short-range parameter             ....  4.400000
 RI-approximation to the Coulomb term is turned on
   Number of AuxJ basis functions       .... 213


General Settings:
 Integral files         IntName         .... ./../Data/ethanol_edited
 Hartree-Fock type      HFTyp           .... RHF
 Total Charge           Charge          ....    0
 Multiplicity           Mult            ....    1
 Number of Electrons    NEL             ....   26
 Basis Dimension        Dim             ....   72
 Nuclear Repulsion      ENuc            ....     81.6437409413 Eh

Convergence Acceleration:
 AO-DIIS                CNVDIIS         .... on
   Start iteration      DIISMaxIt       ....    12
   Startup error        DIISStart       ....  0.200000
   # of expansion vecs  DIISMaxEq       ....     5
   Bias factor          DIISBfac        ....   1.050
   Max. coefficient     DIISMaxC        ....  10.000
 MO-DIIS                CNVKDIIS        .... off
 Trust-Rad. Augm. Hess. CNVTRAH         .... auto
   Auto Start mean grad. ratio tolernc. ....  1.125000
   Auto Start start iteration           ....     1
   Auto Start num. interpolation iter.  ....    10
   Max. Number of Micro iterations      ....    24
   Max. Number of Macro iterations      .... Maxiter - #DIIS iter
   Number of Davidson start vectors     ....     2
   Converg. threshold    (grad. norm)   ....   1.000e-05
   Grad. Scal. Fac. for Micro threshold ....   0.100
   Minimum threshold for Micro iter.    ....   1.000e-02
   NR start threshold (gradient norm)   ....   1.000e-04
   Initial trust radius                 ....   0.400
   Minimum AH scaling param. (alpha)    ....   1.000
   Maximum AH scaling param. (alpha)    .... 1000.000
   Quad. conv. algorithm                .... NR
   White noise on init. David. guess    .... on
   Maximum white noise                  ....   0.010
   Pseudo random numbers                .... off
   Inactive MOs                         .... canonical
   Orbital update algorithm             .... Taylor
   Preconditioner                       .... Diag
   Full preconditioner red. dimension   ....   250
 SOSCF                  CNVSOSCF        .... on
   Start iteration      SOSCFMaxIt      ....   150
   Startup grad/error   SOSCFStart      ....  0.003300
   Hessian update       SOSCFHessUp     .... L-BFGS
 Level Shifting         CNVShift        .... on
   Level shift para.    LevelShift      ....    0.2500
   Turn off err/grad.   ShiftErr        ....    0.0010
 Zerner damping         CNVZerner       .... off
 Static damping         CNVDamp         .... on
   Fraction old density DampFac         ....    0.7000
   Max. Damping (<1)    DampMax         ....    0.9800
   Min. Damping (>=0)   DampMin         ....    0.0000
   Turn off err/grad.   DampErr         ....    0.1000

SCF Procedure:
 Maximum # iterations   MaxIter         ....   125
 SCF integral mode      SCFMode         .... Direct
   Integral package                     .... SHARK and LIBINT hybrid scheme
 Reset frequency        DirectResetFreq ....    20
 Integral Threshold     Thresh          ....  2.500e-11 Eh
 Primitive CutOff       TCut            ....  2.500e-12 Eh

Convergence Tolerance:
 Convergence Check Mode ConvCheckMode   .... Total+1el-Energy
 Convergence forced     ConvForced      .... 0
 Energy Change          TolE            ....  1.000e-08 Eh
 1-El. energy change                    ....  1.000e-05 Eh
 Orbital Gradient       TolG            ....  1.000e-05
 Orbital Rotation angle TolX            ....  1.000e-05
 DIIS Error             TolErr          ....  5.000e-07

---------------------
INITIAL GUESS: MOREAD
---------------------
Guess MOs are being read from file: ./../Data/ethanol_edited.ges
Input Geometry matches current geometry (good)
Input basis set matches current basis set (good)
Occupation numbers will be reassigned to an Aufbau configuration
MOs were renormalized
MOs were reorthogonalized (Cholesky)
                      ------------------
                      INITIAL GUESS DONE (   0.0 sec)
                      ------------------
             **** ENERGY FILE WAS UPDATED (./../Data/ethanol_edited.en.tmp) ****
Finished Guess after   0.0 sec
Maximum memory used throughout the entire GUESS-calculation: 6.6 MB

-------------------------------------------------------------------------------------------
                                      ORCA LEAN-SCF
                              memory conserving SCF solver
-------------------------------------------------------------------------------------------

----------------------------------------D-I-I-S--------------------------------------------
Iteration    Energy (Eh)           Delta-E    RMSDP     MaxDP     DIISErr   Damp  Time(sec)
-------------------------------------------------------------------------------------------
               ***  Starting incremental Fock matrix formation  ***
                              *** Initializing SOSCF ***
---------------------------------------S-O-S-C-F--------------------------------------
Iteration    Energy (Eh)           Delta-E    RMSDP     MaxDP     MaxGrad    Time(sec)
--------------------------------------------------------------------------------------
    1    -154.9189561861891491     0.00e+00  2.49e-07  2.69e-06  2.47e-07     0.1
               *** Restarting incremental Fock matrix formation ***
    2    -154.9189561862145013    -2.54e-11  1.57e-07  1.84e-06  4.54e-07     0.1
                  *** Gradient check signals convergence ***

               *****************************************************
               *                     SUCCESS                       *
               *           SCF CONVERGED AFTER   2 CYCLES          *
               *****************************************************

             **** ENERGY FILE WAS UPDATED (./../Data/ethanol_edited.en.tmp) ****

----------------
TOTAL SCF ENERGY
----------------

Total Energy       :       -154.91895618621450 Eh           -4215.55911 eV

Components:
Nuclear Repulsion  :         81.64374094132543 Eh            2221.63914 eV
Electronic Energy  :       -236.56269712753993 Eh           -6437.19825 eV
One Electron Energy:       -371.38896556603987 Eh          -10106.00753 eV
Two Electron Energy:        134.82626843849994 Eh            3668.80928 eV

Virial components:
Potential Energy   :       -308.18560856658286 Eh           -8386.15675 eV
Kinetic Energy     :        153.26665238036836 Eh            4170.59764 eV
Virial Ratio       :          2.01078058260022

DFT components:
N(Alpha)           :       12.999992161600 electrons
N(Beta)            :       12.999992161600 electrons
N(Total)           :       25.999984323201 electrons
E(X)               :      -20.718838236648 Eh       
E(C)               :       -0.926425429744 Eh       
E(XC)              :      -21.645263666392 Eh       

---------------
SCF CONVERGENCE
---------------

  Last Energy change         ...    2.5352e-11  Tolerance :   1.0000e-08
  Last MAX-Density change    ...    1.8436e-06  Tolerance :   1.0000e-07
  Last RMS-Density change    ...    1.5728e-07  Tolerance :   5.0000e-09
  Last DIIS Error            ...    2.5399e-06  Tolerance :   5.0000e-07
  Last Orbital Gradient      ...    4.5374e-07  Tolerance :   1.0000e-05
  Last Orbital Rotation      ...    9.0310e-07  Tolerance :   1.0000e-05


----------------
ORBITAL ENERGIES
----------------

  NO   OCC          E(Eh)            E(eV) 
   0   2.0000     -18.767347      -510.6855 
   1   2.0000      -9.951807      -270.8024 
   2   2.0000      -9.903931      -269.4997 
   3   2.0000      -0.916916       -24.9505 
   4   2.0000      -0.665913       -18.1204 
   5   2.0000      -0.534272       -14.5383 
   6   2.0000      -0.460360       -12.5270 
   7   2.0000      -0.413967       -11.2646 
   8   2.0000      -0.353061        -9.6073 
   9   2.0000      -0.335634        -9.1331 
  10   2.0000      -0.317671        -8.6443 
  11   2.0000      -0.277065        -7.5393 
  12   2.0000      -0.213312        -5.8045 
  13   0.0000       0.029160         0.7935 
  14   0.0000       0.065490         1.7821 
  15   0.0000       0.095353         2.5947 
  16   0.0000       0.103744         2.8230 
  17   0.0000       0.116106         3.1594 
  18   0.0000       0.140683         3.8282 
  19   0.0000       0.172087         4.6827 
  20   0.0000       0.193273         5.2592 
  21   0.0000       0.399643        10.8748 
  22   0.0000       0.404673        11.0117 
  23   0.0000       0.429521        11.6878 
*Only the first 10 virtual orbitals were printed.

                    ********************************
                    * MULLIKEN POPULATION ANALYSIS *
                    ********************************

-----------------------
MULLIKEN ATOMIC CHARGES
-----------------------
   0 C :   -0.083948
   1 C :    0.087829
   2 H :    0.040471
   3 H :    0.041059
   4 H :    0.030090
   5 O :   -0.298327
   6 H :    0.005372
   7 H :    0.005286
   8 H :    0.172168
Sum of atomic charges:    0.0000000

--------------------------------
MULLIKEN REDUCED ORBITAL CHARGES
--------------------------------
  0 C s       :     3.044623  s :     3.044623
      pz      :     1.036020  p :     3.014951
      px      :     0.988142
      py      :     0.990790
      dz2     :     0.004640  d :     0.024374
      dxz     :     0.007439
      dyz     :     0.002607
      dx2y2   :     0.006811
      dxy     :     0.002877

  1 C s       :     3.028170  s :     3.028170
      pz      :     1.001288  p :     2.819823
      px      :     1.057172
      py      :     0.761362
      dz2     :     0.008928  d :     0.064178
      dxz     :     0.008299
      dyz     :     0.016449
      dx2y2   :     0.017378
      dxy     :     0.013124

  2 H s       :     0.937717  s :     0.937717
      pz      :     0.010557  p :     0.021812
      px      :     0.005800
      py      :     0.005455

  3 H s       :     0.937108  s :     0.937108
      pz      :     0.009149  p :     0.021833
      px      :     0.005997
      py      :     0.006688

  4 H s       :     0.948012  s :     0.948012
      pz      :     0.005247  p :     0.021898
      px      :     0.004367
      py      :     0.012284

  5 O s       :     3.745398  s :     3.745398
      pz      :     1.884518  p :     4.540017
      px      :     1.328381
      py      :     1.327118
      dz2     :     0.002009  d :     0.012911
      dxz     :     0.000618
      dyz     :     0.002064
      dx2y2   :     0.006156
      dxy     :     0.002065

  6 H s       :     0.974937  s :     0.974937
      pz      :     0.009093  p :     0.019691
      px      :     0.005894
      py      :     0.004705

  7 H s       :     0.975094  s :     0.975094
      pz      :     0.010758  p :     0.019620
      px      :     0.005729
      py      :     0.003134

  8 H s       :     0.763191  s :     0.763191
      pz      :     0.018606  p :     0.064641
      px      :     0.030850
      py      :     0.015185



                     *******************************
                     * LOEWDIN POPULATION ANALYSIS *
                     *******************************

----------------------
LOEWDIN ATOMIC CHARGES
----------------------
   0 C :   -0.085365
   1 C :    0.040987
   2 H :    0.031441
   3 H :    0.031628
   4 H :    0.032874
   5 O :   -0.147607
   6 H :    0.002956
   7 H :    0.002661
   8 H :    0.090425

-------------------------------
LOEWDIN REDUCED ORBITAL CHARGES
-------------------------------
  0 C s       :     2.861435  s :     2.861435
      pz      :     1.072003  p :     3.158473
      px      :     1.031400
      py      :     1.055070
      dz2     :     0.013220  d :     0.065457
      dxz     :     0.017562
      dyz     :     0.007030
      dx2y2   :     0.019533
      dxy     :     0.008112

  1 C s       :     2.851160  s :     2.851160
      pz      :     1.056891  p :     2.961164
      px      :     1.063182
      py      :     0.841091
      dz2     :     0.021805  d :     0.146690
      dxz     :     0.019265
      dyz     :     0.038563
      dx2y2   :     0.041123
      dxy     :     0.025933

  2 H s       :     0.904903  s :     0.904903
      pz      :     0.032258  p :     0.063656
      px      :     0.018140
      py      :     0.013258

  3 H s       :     0.904705  s :     0.904705
      pz      :     0.026987  p :     0.063668
      px      :     0.018779
      py      :     0.017902

  4 H s       :     0.903822  s :     0.903822
      pz      :     0.012838  p :     0.063304
      px      :     0.012588
      py      :     0.037877

  5 O s       :     3.468494  s :     3.468494
      pz      :     1.859012  p :     4.654739
      px      :     1.409128
      py      :     1.386599
      dz2     :     0.003940  d :     0.024374
      dxz     :     0.000323
      dyz     :     0.003171
      dx2y2   :     0.013144
      dxy     :     0.003796

  6 H s       :     0.934032  s :     0.934032
      pz      :     0.027714  p :     0.063012
      px      :     0.017963
      py      :     0.017334

  7 H s       :     0.934257  s :     0.934257
      pz      :     0.034160  p :     0.063082
      px      :     0.017461
      py      :     0.011461

  8 H s       :     0.743684  s :     0.743684
      pz      :     0.046734  p :     0.165891
      px      :     0.086017
      py      :     0.033141



                      *****************************
                      * MAYER POPULATION ANALYSIS *
                      *****************************

  NA   - Mulliken gross atomic population
  ZA   - Total nuclear charge
  QA   - Mulliken gross atomic charge
  VA   - Mayer's total valence
  BVA  - Mayer's bonded valence
  FA   - Mayer's free valence

  ATOM       NA         ZA         QA         VA         BVA        FA
  0 C      6.0839     6.0000    -0.0839     4.0040     4.0040     0.0000
  1 C      5.9122     6.0000     0.0878     4.1355     4.1355     0.0000
  2 H      0.9595     1.0000     0.0405     0.9937     0.9937     0.0000
  3 H      0.9589     1.0000     0.0411     0.9929     0.9929     0.0000
  4 H      0.9699     1.0000     0.0301     0.9869     0.9869     0.0000
  5 O      8.2983     8.0000    -0.2983     2.1006     2.1006     0.0000
  6 H      0.9946     1.0000     0.0054     0.9656     0.9656     0.0000
  7 H      0.9947     1.0000     0.0053     0.9657     0.9657     0.0000
  8 H      0.8278     1.0000     0.1722     1.0077     1.0077     0.0000

  Mayer bond orders larger than 0.100000
B(  0-C ,  1-C ) :   1.1164 B(  0-C ,  2-H ) :   0.9653 B(  0-C ,  3-H ) :   0.9654 
B(  0-C ,  4-H ) :   0.9601 B(  1-C ,  5-O ) :   1.0875 B(  1-C ,  6-H ) :   0.9395 
B(  1-C ,  7-H ) :   0.9385 B(  5-O ,  8-H ) :   0.9715 

-------
TIMINGS
-------

Total SCF time: 0 days 0 hours 0 min 0 sec 

Total time                  ....       0.252 sec
Sum of individual times     ....       0.238 sec  ( 94.4%)

SCF preparation             ....       0.025 sec  (  9.9%)
Fock matrix formation       ....       0.209 sec  ( 82.9%)
  Startup                   ....       0.000 sec  (  0.2% of F)
  Split-RI-J                ....       0.031 sec  ( 15.0% of F)
  XC integration            ....       0.177 sec  ( 84.4% of F)
    Basis function eval.    ....       0.069 sec  ( 39.3% of XC)
    Density eval.           ....       0.030 sec  ( 17.0% of XC)
    XC-Functional eval.     ....       0.022 sec  ( 12.4% of XC)
    XC-Potential eval.      ....       0.049 sec  ( 27.9% of XC)
Diagonalization             ....       0.000 sec  (  0.0%)
Density matrix formation    ....       0.000 sec  (  0.1%)
Total Energy calculation    ....       0.000 sec  (  0.0%)
Population analysis         ....       0.001 sec  (  0.5%)
Orbital Transformation      ....       0.001 sec  (  0.3%)
Orbital Orthonormalization  ....       0.000 sec  (  0.0%)
DIIS solution               ....       0.001 sec  (  0.3%)
SOSCF solution              ....       0.001 sec  (  0.4%)
Finished LeanSCF after   0.3 sec

Maximum memory used throughout the entire LEANSCF-calculation: 8.2 MB

-------------------------   --------------------
FINAL SINGLE POINT ENERGY      -154.918956186215
-------------------------   --------------------

------------------------------------------------------------------------------
                         ORCA SCF GRADIENT CALCULATION
------------------------------------------------------------------------------

Nuc. rep. gradient        (SHARK) ... done (  0.0 sec)
HCore & Overlap gradient  (SHARK) ... done (  0.0 sec)
Split-RIJ-J gradient      (SHARK) ... done (  0.1 sec)
XC gradient                       ... done (  0.5 sec)

------------------
CARTESIAN GRADIENT
------------------

   1   C   :   -0.000793602    0.000180911   -0.000164118
   2   C   :    0.004710020    0.006119474   -0.000539402
   3   H   :    0.000949291    0.000215567   -0.001934053
   4   H   :    0.000959572    0.000797401    0.001785090
   5   H   :    0.001594926   -0.001120418    0.000113368
   6   O   :   -0.015884038   -0.019981487    0.003788561
   7   H   :   -0.003951816    0.006376453   -0.001037367
   8   H   :   -0.003972549    0.006691594   -0.001240568
   9   H   :    0.016388197    0.000720504   -0.000771512

Difference to translation invariance:
           :    0.0000000000   -0.0000000000    0.0000000000

Difference to rotation invariance:
           :   -0.0000424017    0.0000178071    0.0000643230

Norm of the Cartesian gradient     ...    0.0335992375
RMS gradient                       ...    0.0064661763
MAX gradient                       ...    0.0199814872

-------
TIMINGS
-------

Total SCF gradient time     ....        0.649 sec

Densities                   ....       0.000 sec  (  0.0%)
One electron gradient       ....       0.016 sec  (  2.4%)
RI-J Coulomb gradient       ....       0.110 sec  ( 17.0%)
XC gradient                 ....       0.523 sec  ( 80.6%)

Maximum memory used throughout the entire SCFGRAD-calculation: 10.6 MB

------------------------------------------------------------------------------
                              ORCA PROPERTY CALCULATIONS
------------------------------------------------------------------------------

GBWName                                 ... ./../Data/ethanol_edited.gbw
Number of atoms                         ...      9
Number of basis functions               ...     72
Max core memory                         ...   1024 MB

Electric properties:
Dipole moment                           ... YES
Quadrupole moment                       ...  NO
Static polarizability (Dipole/Dipole)   ...  NO
Static polarizability (Dipole/Quad.)    ...  NO
Static polarizability (Quad./Quad.)     ...  NO
Static polarizability (Velocity)        ...  NO

Atomic electric properties:
Dipole moment                           ...  NO
Quadrupole moment                       ...  NO
Static polarizability                   ...  NO

Choice of electric origin               ... Center of mass
Position of electric origin             ...    -6.243399     3.682067    -0.234294

General magnetic properties:
Magnetizability                         ...  NO

EPR properties:
g-Tensor (aka g-matrix)                 ...  NO
Zero-Field splitting spin-orbit         ...  NO
Zero-field splitting spin-spin          ...  NO
Hyperfine couplings                     ...  NO (   0 nuclei)
Quadrupole couplings                    ...  NO (   0 nuclei)
Contact density                         ...  NO (   0 nuclei)

NMR properties:
Chemical shifts                         ...  NO (   0 nuclei)
Spin-rotation constants                 ...  NO (   0 nuclei)
Spin-spin couplings                     ...  NO (   0 nuclei,    0 pairs)

Choice of magnetic origin               ... GIAO
Position of magnetic origin             ...     0.000000     0.000000     0.000000

Properties with geometric perturbations:
SCF Hessian                             ...  NO
IR spectrum                             ...  NO
VCD spectrum                            ...  NO
X-ray spectroscopy properties:
SCF XES/XAS/RIXS spectra                ...  NO


-------------
DIPOLE MOMENT
-------------

Method             : SCF
Type of density    : Electron Density
Multiplicity       :   1
Irrep              :   0
Energy             :  -154.9189561862145013 Eh
Relativity type    : 
Basis              : AO
                                X                 Y                 Z
Electronic contribution:      1.288828011       2.436947039      -0.331146520
Nuclear contribution   :     -0.782222131      -2.726670917       0.355938385
                        -----------------------------------------
Total Dipole Moment    :      0.506605880      -0.289723877       0.024791865
                        -----------------------------------------
Magnitude (a.u.)       :      0.584126767
Magnitude (Debye)      :      1.484732247



--------------------
Rotational spectrum 
--------------------
 
Rotational constants in cm-1:             1.192997             0.309667             0.272285 
Rotational constants in MHz :         35765.140338          9283.573738          8162.911065 

Dipole components along the rotational axes: 
x,y,z [a.u.] :    -0.119910     0.571162     0.024478 
x,y,z [Debye]:    -0.304788     1.451779     0.062219 

 

Dipole moment calculation done in   0.0 sec 

Maximum memory used throughout the entire PROP-calculation: 4.7 MB

----------------------------------------------------------------------------
                           ORCA NUMERICAL FREQUENCIES
----------------------------------------------------------------------------

Number of atoms                ... 9
Central differences            ... used
Number of displacements        ... 54
Numerical increment            ... 5.000e-03 bohr
IR-spectrum generation         ... on
Raman-spectrum generation      ... off
Surface Crossing Hessian       ... off

The output will be reduced. Please look at the following files:
SCF program output             ... >./../Data/ethanol_edited.lastscf
Integral program output        ... >./../Data/ethanol_edited.lastint
Gradient program output        ... >./../Data/ethanol_edited.lastgrad
Dipole moment program output   ... >./../Data/ethanol_edited.lastmom

	<< Calculating gradient on displaced geometry   1 (of  54) >>
	<< Calculating gradient on displaced geometry   2 (of  54) >>
	<< Calculating gradient on displaced geometry   3 (of  54) >>
	<< Calculating gradient on displaced geometry   4 (of  54) >>
	<< Calculating gradient on displaced geometry   5 (of  54) >>
	<< Calculating gradient on displaced geometry   6 (of  54) >>
	<< Calculating gradient on displaced geometry   7 (of  54) >>
	<< Calculating gradient on displaced geometry   8 (of  54) >>
	<< Calculating gradient on displaced geometry   9 (of  54) >>
	<< Calculating gradient on displaced geometry  10 (of  54) >>
	<< Calculating gradient on displaced geometry  11 (of  54) >>
	<< Calculating gradient on displaced geometry  12 (of  54) >>
	<< Calculating gradient on displaced geometry  13 (of  54) >>
	<< Calculating gradient on displaced geometry  14 (of  54) >>
	<< Calculating gradient on displaced geometry  15 (of  54) >>
	<< Calculating gradient on displaced geometry  16 (of  54) >>
	<< Calculating gradient on displaced geometry  17 (of  54) >>
	<< Calculating gradient on displaced geometry  18 (of  54) >>
	<< Calculating gradient on displaced geometry  19 (of  54) >>
	<< Calculating gradient on displaced geometry  20 (of  54) >>
	<< Calculating gradient on displaced geometry  21 (of  54) >>
	<< Calculating gradient on displaced geometry  22 (of  54) >>
	<< Calculating gradient on displaced geometry  23 (of  54) >>
	<< Calculating gradient on displaced geometry  24 (of  54) >>
	<< Calculating gradient on displaced geometry  25 (of  54) >>
	<< Calculating gradient on displaced geometry  26 (of  54) >>
	<< Calculating gradient on displaced geometry  27 (of  54) >>
	<< Calculating gradient on displaced geometry  28 (of  54) >>
	<< Calculating gradient on displaced geometry  29 (of  54) >>
	<< Calculating gradient on displaced geometry  30 (of  54) >>
	<< Calculating gradient on displaced geometry  31 (of  54) >>
	<< Calculating gradient on displaced geometry  32 (of  54) >>
	<< Calculating gradient on displaced geometry  33 (of  54) >>
	<< Calculating gradient on displaced geometry  34 (of  54) >>
	<< Calculating gradient on displaced geometry  35 (of  54) >>
	<< Calculating gradient on displaced geometry  36 (of  54) >>
	<< Calculating gradient on displaced geometry  37 (of  54) >>
	<< Calculating gradient on displaced geometry  38 (of  54) >>
	<< Calculating gradient on displaced geometry  39 (of  54) >>
	<< Calculating gradient on displaced geometry  40 (of  54) >>
	<< Calculating gradient on displaced geometry  41 (of  54) >>
	<< Calculating gradient on displaced geometry  42 (of  54) >>
	<< Calculating gradient on displaced geometry  43 (of  54) >>
	<< Calculating gradient on displaced geometry  44 (of  54) >>
	<< Calculating gradient on displaced geometry  45 (of  54) >>
	<< Calculating gradient on displaced geometry  46 (of  54) >>
	<< Calculating gradient on displaced geometry  47 (of  54) >>
	<< Calculating gradient on displaced geometry  48 (of  54) >>
	<< Calculating gradient on displaced geometry  49 (of  54) >>
	<< Calculating gradient on displaced geometry  50 (of  54) >>
	<< Calculating gradient on displaced geometry  51 (of  54) >>
	<< Calculating gradient on displaced geometry  52 (of  54) >>
	<< Calculating gradient on displaced geometry  53 (of  54) >>
	<< Calculating gradient on displaced geometry  54 (of  54) >>

-----------------------
VIBRATIONAL FREQUENCIES
-----------------------

Scaling factor for frequencies =  1.000000000  (already applied!)

     0:       0.00 cm**-1
     1:       0.00 cm**-1
     2:       0.00 cm**-1
     3:       0.00 cm**-1
     4:       0.00 cm**-1
     5:       0.00 cm**-1
     6:     291.98 cm**-1
     7:     406.87 cm**-1
     8:     568.92 cm**-1
     9:     793.54 cm**-1
    10:     901.32 cm**-1
    11:    1042.12 cm**-1
    12:    1148.18 cm**-1
    13:    1165.24 cm**-1
    14:    1258.33 cm**-1
    15:    1282.79 cm**-1
    16:    1332.37 cm**-1
    17:    1407.67 cm**-1
    18:    1423.07 cm**-1
    19:    1429.30 cm**-1
    20:    1451.56 cm**-1
    21:    2917.05 cm**-1
    22:    2952.07 cm**-1
    23:    2959.19 cm**-1
    24:    3047.22 cm**-1
    25:    3047.71 cm**-1
    26:    3470.07 cm**-1


------------
NORMAL MODES
------------

These modes are the Cartesian displacements weighted by the diagonal matrix
M(i,i)=1/sqrt(m[i]) where m[i] is the mass of the displaced atom
Thus, these vectors are normalized but *not* orthogonal

                  0          1          2          3          4          5    
      0       0.000000   0.000000   0.000000   0.000000   0.000000   0.000000
      1       0.000000   0.000000   0.000000   0.000000   0.000000   0.000000
      2       0.000000   0.000000   0.000000   0.000000   0.000000   0.000000
      3       0.000000   0.000000   0.000000   0.000000   0.000000   0.000000
      4       0.000000   0.000000   0.000000   0.000000   0.000000   0.000000
      5       0.000000   0.000000   0.000000   0.000000   0.000000   0.000000
      6       0.000000   0.000000   0.000000   0.000000   0.000000   0.000000
      7       0.000000   0.000000   0.000000   0.000000   0.000000   0.000000
      8       0.000000   0.000000   0.000000   0.000000   0.000000   0.000000
      9       0.000000   0.000000   0.000000   0.000000   0.000000   0.000000
     10       0.000000   0.000000   0.000000   0.000000   0.000000   0.000000
     11       0.000000   0.000000   0.000000   0.000000   0.000000   0.000000
     12       0.000000   0.000000   0.000000   0.000000   0.000000   0.000000
     13       0.000000   0.000000   0.000000   0.000000   0.000000   0.000000
     14       0.000000   0.000000   0.000000   0.000000   0.000000   0.000000
     15       0.000000   0.000000   0.000000   0.000000   0.000000   0.000000
     16       0.000000   0.000000   0.000000   0.000000   0.000000   0.000000
     17       0.000000   0.000000   0.000000   0.000000   0.000000   0.000000
     18       0.000000   0.000000   0.000000   0.000000   0.000000   0.000000
     19       0.000000   0.000000   0.000000   0.000000   0.000000   0.000000
     20       0.000000   0.000000   0.000000   0.000000   0.000000   0.000000
     21       0.000000   0.000000   0.000000   0.000000   0.000000   0.000000
     22       0.000000   0.000000   0.000000   0.000000   0.000000   0.000000
     23       0.000000   0.000000   0.000000   0.000000   0.000000   0.000000
     24       0.000000   0.000000   0.000000   0.000000   0.000000   0.000000
     25       0.000000   0.000000   0.000000   0.000000   0.000000   0.000000
     26       0.000000   0.000000   0.000000   0.000000   0.000000   0.000000
                  6          7          8          9         10         11    
      0       0.001546  -0.092697  -0.000685  -0.001390   0.134747  -0.174352
      1       0.001498  -0.166955   0.004746   0.005808   0.165750   0.078172
      2       0.001848   0.023762   0.029116   0.047208  -0.022313  -0.014983
      3      -0.001316  -0.150313   0.001922  -0.000283  -0.109416   0.202731
      4       0.010003   0.111822  -0.003141   0.008105   0.052325   0.009743
      5       0.074008  -0.018272  -0.040707   0.058077  -0.008284   0.003634
      6      -0.042486  -0.273018  -0.071174   0.445739  -0.026691  -0.406363
      7       0.513271  -0.422985   0.005267   0.037499  -0.208208  -0.317503
      8       0.159013   0.049758   0.066011  -0.181615  -0.031405   0.004835
      9       0.042805  -0.270396   0.070642  -0.438868  -0.039479  -0.406503
     10      -0.439886  -0.434755   0.014981  -0.085632  -0.194775  -0.315587
     11       0.300378   0.076869   0.067983  -0.179273   0.084144   0.077290
     12       0.004762   0.373937   0.003186  -0.000692   0.820899   0.272047
     13      -0.085366  -0.197289   0.004139  -0.026647   0.126339   0.042247
     14      -0.588721   0.024856   0.025936  -0.174434  -0.005388  -0.003944
     15      -0.000505   0.199032  -0.002695  -0.000188  -0.035545  -0.000025
     16      -0.010015   0.111350  -0.010795  -0.002156  -0.125470  -0.050851
     17      -0.063577  -0.014240  -0.059741  -0.024192   0.018109   0.006522
     18       0.055216  -0.179852   0.010124  -0.439477  -0.230010   0.160520
     19      -0.056292   0.057092  -0.042271   0.008908  -0.101598  -0.066611
     20       0.151408  -0.000511  -0.018647  -0.220730   0.005355   0.017926
     21      -0.055664  -0.180620  -0.011148   0.451165  -0.220847   0.170492
     22       0.099835   0.055819   0.028993  -0.072776  -0.110957  -0.054917
     23       0.126759  -0.020024  -0.029188  -0.198680   0.014828   0.007086
     24       0.000638   0.266535   0.026410   0.005051  -0.041556  -0.127948
     25      -0.009638  -0.168284   0.141110   0.007081  -0.117850   0.471918
     26      -0.043615   0.029653   0.974225   0.084158   0.009623  -0.071472
                 12         13         14         15         16         17    
      0      -0.001592  -0.035711   0.002389  -0.034789   0.136738  -0.003439
      1       0.014757  -0.071594  -0.017947   0.060734   0.043848  -0.011881
      2       0.119306   0.001910  -0.077572  -0.014211  -0.004095  -0.043331
      3       0.001294   0.021380   0.000142   0.001946   0.020440   0.020672
      4      -0.018143   0.325278   0.008587  -0.086006   0.011460   0.004430
      5      -0.179843  -0.040751   0.010765   0.008617  -0.001994  -0.026251
      6       0.377388  -0.063859  -0.204458  -0.036790  -0.404240   0.171739
      7       0.001830   0.164479   0.025177  -0.173343  -0.279177   0.483900
      8      -0.094627   0.070654   0.043731  -0.070200   0.181285   0.007007
      9      -0.371604  -0.030658   0.233806   0.000291  -0.383814  -0.223069
     10      -0.015692   0.122905   0.026694  -0.126182  -0.297841  -0.405041
     11      -0.111864  -0.104661   0.044376   0.118293  -0.111202   0.075938
     12      -0.001167  -0.286265  -0.001350   0.152566  -0.604886   0.024486
     13      -0.036775  -0.039477   0.009996   0.042602   0.069663   0.093787
     14      -0.236956   0.026213   0.107675  -0.010978  -0.037167   0.690336
     15       0.001293   0.004604   0.002440  -0.038074  -0.019105  -0.009694
     16       0.001296  -0.241892   0.003506   0.045486   0.013487   0.009477
     17       0.056317   0.036010   0.034337  -0.000801  -0.000863   0.000570
     18       0.246809   0.211773  -0.421085   0.332207  -0.115916   0.028631
     19      -0.421899   0.470341  -0.564615   0.194823  -0.095838  -0.068939
     20       0.223053  -0.046266   0.102763   0.025209  -0.014004   0.019112
     21      -0.258800   0.253627   0.338186   0.398093  -0.099541  -0.075035
     22       0.474837   0.455513   0.503096   0.312113  -0.062166  -0.059641
     23       0.084383  -0.095187  -0.036583  -0.078494   0.037435   0.002686
     24      -0.009596   0.013072  -0.013993   0.149294   0.038748   0.021779
     25       0.017469  -0.357250   0.055536  -0.670840  -0.207728  -0.105696
     26      -0.036528   0.040500  -0.010903   0.095533   0.029904   0.024998
                 18         19         20         21         22         23    
      0      -0.024101   0.046003   0.040292   0.001356  -0.045783  -0.003827
      1      -0.046518  -0.006895  -0.008709  -0.007013  -0.014090  -0.000008
      2       0.016498  -0.000260  -0.001910   0.001728  -0.000084   0.014553
      3       0.100842  -0.111306  -0.026825  -0.052075   0.001073   0.000895
      4       0.037495  -0.001371  -0.101981   0.037437  -0.000131  -0.012988
      5      -0.000422  -0.001074   0.013871  -0.004061   0.006331  -0.093847
      6      -0.238429  -0.205348  -0.276336  -0.008088   0.254849  -0.032268
      7       0.270650   0.167978   0.265025   0.003374  -0.135422   0.019518
      8       0.202519   0.169153   0.228752  -0.020677   0.510723  -0.066402
      9      -0.158500  -0.197461  -0.282347  -0.003267   0.259774   0.069781
     10       0.367100   0.098630   0.139040   0.005215  -0.265681  -0.072157
     11      -0.320708  -0.210298  -0.289554   0.010772  -0.426479  -0.112274
     12       0.337507   0.065014   0.194543  -0.001805   0.024215   0.002588
     13      -0.076439   0.000791  -0.008423   0.066061   0.567118   0.048840
     14      -0.125817   0.015528   0.046367  -0.010003  -0.082619  -0.002078
     15      -0.042982   0.017375   0.022688   0.000589   0.000672  -0.000255
     16       0.034608  -0.001515  -0.010191   0.003060   0.000360   0.000307
     17      -0.004915   0.000094   0.001382  -0.000423  -0.000073  -0.000063
     18      -0.134199   0.434424  -0.061724   0.317835   0.015778  -0.320442
     19      -0.261106  -0.136129   0.394545  -0.336526  -0.014249   0.314519
     20       0.037782   0.399320  -0.305620  -0.549137  -0.023842   0.509866
     21      -0.132491   0.450717  -0.057011   0.287835  -0.025843   0.316122
     22      -0.273191  -0.235647   0.480451  -0.156432   0.014049  -0.161299
     23       0.035764  -0.330119   0.177445   0.606197  -0.051146   0.610176
     24       0.093895  -0.044995  -0.037693   0.002497  -0.006675   0.003200
     25      -0.468793   0.226908   0.210067   0.007224  -0.002081   0.000568
     26       0.056922  -0.029174  -0.021853  -0.002635   0.000071   0.006549
                 24         25         26    
      0       0.023050   0.013063   0.000480
      1      -0.081191  -0.036459  -0.000877
      2      -0.038628   0.084100   0.000088
      3       0.003695   0.002619  -0.002089
      4      -0.004930  -0.000895   0.001723
      5      -0.007666   0.014706   0.000011
      6       0.020179  -0.361401   0.001348
      7      -0.021352   0.179968   0.000637
      8       0.024951  -0.691537   0.002477
      9      -0.341845   0.177319   0.001862
     10       0.326324  -0.178879  -0.000623
     11       0.543271  -0.264445  -0.002715
     12       0.039551   0.025335  -0.001962
     13       0.670412   0.438248   0.007368
     14      -0.105345  -0.052157  -0.000683
     15       0.000169   0.000180  -0.059759
     16       0.000584   0.000273  -0.017018
     17       0.000064  -0.000357   0.004247
     18      -0.044206   0.030141   0.001201
     19       0.043265  -0.026331   0.004634
     20       0.071003  -0.048701  -0.000020
     21       0.008050  -0.057943  -0.001026
     22      -0.001127   0.028457   0.006383
     23       0.015937  -0.114170  -0.004940
     24      -0.003087  -0.003181   0.966245
     25      -0.000602  -0.000701   0.241629
     26       0.000795  -0.000649  -0.062707


-----------
IR SPECTRUM
-----------

 Mode   freq       eps      Int      T**2         TX        TY        TZ
       cm**-1   L/(mol*cm) km/mol    a.u.
----------------------------------------------------------------------------
  6:    291.98   0.000020    0.10  0.000022  (-0.001223  0.002169  0.003952)
  7:    406.87   0.001638    8.28  0.001256  (-0.011981 -0.033076  0.004328)
  8:    568.92   0.022639  114.41  0.012418  ( 0.002150  0.017468  0.110037)
  9:    793.54   0.000095    0.48  0.000037  ( 0.000815 -0.000306  0.006041)
 10:    901.32   0.000916    4.63  0.000317  ( 0.002683  0.017272 -0.003426)
 11:   1042.12   0.004529   22.89  0.001356  ( 0.012110  0.034318 -0.005637)
 12:   1148.18   0.001235    6.24  0.000336  ( 0.000516  0.001571 -0.018247)
 13:   1165.24   0.009818   49.61  0.002629  ( 0.006119  0.050436 -0.006934)
 14:   1258.33   0.000188    0.95  0.000047  ( 0.001594  0.006554  0.001109)
 15:   1282.79   0.021546  108.88  0.005241  (-0.010659 -0.070711  0.011309)
 16:   1332.37   0.001772    8.95  0.000415  (-0.010860 -0.017207  0.000981)
 17:   1407.67   0.000982    4.96  0.000218  ( 0.002167 -0.000545  0.014584)
 18:   1423.07   0.000760    3.84  0.000167  ( 0.012367 -0.000382 -0.003686)
 19:   1429.30   0.001169    5.91  0.000255  (-0.007216  0.014252 -0.000122)
 20:   1451.56   0.000943    4.76  0.000203  (-0.013472 -0.004524  0.000853)
 21:   2917.05   0.015177   76.70  0.001624  (-0.027860  0.028181 -0.007299)
 22:   2952.07   0.003646   18.42  0.000385  (-0.018377 -0.006062  0.003301)
 23:   2959.19   0.015290   77.27  0.001612  (-0.002070 -0.005352 -0.039742)
 24:   3047.22   0.006639   33.55  0.000680  ( 0.008435 -0.021529 -0.012052)
 25:   3047.71   0.007864   39.74  0.000805  ( 0.005274 -0.009202  0.026320)
 26:   3470.07   0.003054   15.43  0.000275  ( 0.015185  0.006455 -0.001539)

* The epsilon (eps) is given for a Dirac delta lineshape.
** The dipole moment derivative (T) already includes vibrational overlap.

The first frequency considered to be a vibration is 6
The total number of vibrations considered is 21


--------------------------
THERMOCHEMISTRY AT 298.15K
--------------------------

Temperature         ...   298.15 K
Pressure            ...     1.00 atm
Total Mass          ...    46.07 AMU
Quasi RRHO          ...     True
Cut-Off Frequency   ...     1.00 cm^-1

Throughout the following assumptions are being made:
  (1) The electronic state is orbitally nondegenerate
  (2) There are no thermally accessible electronically excited states
  (3) Hindered rotations indicated by low frequency modes are not
      treated as such but are treated as vibrations and this may
      cause some error
  (4) All equations used are the standard statistical mechanics
      equations for an ideal gas
  (5) All vibrations are strictly harmonic

freq.     291.98  E(vib)   ...       0.27 
freq.     406.87  E(vib)   ...       0.19 
freq.     568.92  E(vib)   ...       0.11 
freq.     793.54  E(vib)   ...       0.05 
freq.     901.32  E(vib)   ...       0.03 
freq.    1042.12  E(vib)   ...       0.02 
freq.    1148.18  E(vib)   ...       0.01 
freq.    1165.24  E(vib)   ...       0.01 
freq.    1258.33  E(vib)   ...       0.01 
freq.    1282.79  E(vib)   ...       0.01 
freq.    1332.37  E(vib)   ...       0.01 
freq.    1407.67  E(vib)   ...       0.00 
freq.    1423.07  E(vib)   ...       0.00 
freq.    1429.30  E(vib)   ...       0.00 
freq.    1451.56  E(vib)   ...       0.00 
freq.    2917.05  E(vib)   ...       0.00 
freq.    2952.07  E(vib)   ...       0.00 
freq.    2959.19  E(vib)   ...       0.00 
freq.    3047.22  E(vib)   ...       0.00 
freq.    3047.71  E(vib)   ...       0.00 
freq.    3470.07  E(vib)   ...       0.00 

------------
INNER ENERGY
------------

The inner energy is: U= E(el) + E(ZPE) + E(vib) + E(rot) + E(trans)
    E(el)   - is the total energy from the electronic structure calculation
              = E(kin-el) + E(nuc-el) + E(el-el) + E(nuc-nuc)
    E(ZPE)  - the the zero temperature vibrational energy from the frequency calculation
    E(vib)  - the the finite temperature correction to E(ZPE) due to population
              of excited vibrational states
    E(rot)  - is the rotational thermal energy
    E(trans)- is the translational thermal energy

Summary of contributions to the inner energy U:
Electronic energy                ...   -154.91895619 Eh
Zero point energy                ...      0.07813337 Eh      49.03 kcal/mol
Thermal vibrational correction   ...      0.00117781 Eh       0.74 kcal/mol
Thermal rotational correction    ...      0.00141627 Eh       0.89 kcal/mol
Thermal translational correction ...      0.00141627 Eh       0.89 kcal/mol
-----------------------------------------------------------------------
Total thermal energy                   -154.83681246 Eh


Summary of corrections to the electronic energy:
(perhaps to be used in another calculation)
Total thermal correction                  0.00401035 Eh       2.52 kcal/mol
Non-thermal (ZPE) correction              0.07813337 Eh      49.03 kcal/mol
-----------------------------------------------------------------------
Total correction                          0.08214372 Eh      51.55 kcal/mol


--------
ENTHALPY
--------

The enthalpy is H = U + kB*T
                kB is Boltzmann's constant
Total thermal energy              ...   -154.83681246 Eh 
Thermal Enthalpy correction       ...      0.00094421 Eh       0.59 kcal/mol
-----------------------------------------------------------------------
Total Enthalpy                    ...   -154.83586826 Eh


Note: Only C1 symmetry has been detected, increase convergence thresholds 
      if your molecule has a higher symmetry. Symmetry factor of 1.0 is   
      used for the rotational entropy correction. 
 

Note: Rotational entropy computed according to Herzberg 
Infrared and Raman Spectra, Chapter V,1, Van Nostrand Reinhold, 1945 
Point Group:  C1, Symmetry Number:   1  
Rotational constants in cm-1:     1.192997     0.309667     0.272285 

Vibrational entropy computed according to the QRRHO of S. Grimme
Chem.Eur.J. 2012 18 9955 using a reference frequency of 100.0 cm-1


-------
ENTROPY
-------

The entropy contributions are T*S = T*(S(el)+S(vib)+S(rot)+S(trans))
     S(el)   - electronic entropy
     S(vib)  - vibrational entropy
     S(rot)  - rotational entropy
     S(trans)- translational entropy
The entropies will be listed as multiplied by the temperature to get
units of energy

Electronic entropy                ...      0.00000000 Eh      0.00 kcal/mol
Vibrational entropy               ...      0.00170717 Eh      1.07 kcal/mol
Rotational entropy                ...      0.01059506 Eh      6.65 kcal/mol
Translational entropy             ...      0.01777359 Eh     11.15 kcal/mol
-----------------------------------------------------------------------
Final entropy term                ...      0.03007582 Eh     18.87 kcal/mol

In case the symmetry of your molecule has not been determined correctly
or in case you have a reason to use a different symmetry number we print 
out the resulting rotational entropy values for sn=1,12:

 non-linear molecules -----------------------------------
|  sn= 1 | S(rot)=       0.01059506 Eh      6.65 kcal/mol|
|  sn= 2 | S(rot)=       0.00994060 Eh      6.24 kcal/mol|
|  sn= 3 | S(rot)=       0.00955777 Eh      6.00 kcal/mol|
|  sn= 4 | S(rot)=       0.00928615 Eh      5.83 kcal/mol|
|  sn= 5 | S(rot)=       0.00907546 Eh      5.69 kcal/mol|
|  sn= 6 | S(rot)=       0.00890331 Eh      5.59 kcal/mol|
|  sn= 7 | S(rot)=       0.00875777 Eh      5.50 kcal/mol|
|  sn= 8 | S(rot)=       0.00863169 Eh      5.42 kcal/mol|
|  sn= 9 | S(rot)=       0.00852048 Eh      5.35 kcal/mol|
|  sn=10 | S(rot)=       0.00842100 Eh      5.28 kcal/mol|
|  sn=11 | S(rot)=       0.00833101 Eh      5.23 kcal/mol|
|  sn=12 | S(rot)=       0.00824886 Eh      5.18 kcal/mol|
 linear molecules ---------------------------------------
|  Dinfh | S(rot)=       0.00655410 Eh      4.11 kcal/mol|
|  Cinfv | S(rot)=       0.00720855 Eh      4.52 kcal/mol|
 --------------------------------------------------------


-------------------
GIBBS FREE ENERGY
-------------------

The Gibbs free energy is G = H - T*S

Total enthalpy                    ...   -154.83586826 Eh 
Total entropy correction          ...     -0.03007582 Eh    -18.87 kcal/mol
-----------------------------------------------------------------------
Final Gibbs free energy         ...   -154.86594407 Eh

For completeness - the Gibbs free energy minus the electronic energy
G-E(el)                           ...      0.05301212 Eh     33.27 kcal/mol



--------------------------------
SUGGESTED CITATIONS FOR THIS RUN
--------------------------------

Below you find a list of papers that are relevant to this ORCA run
We neither can nor want to force you to cite these papers, but we appreciate if you do
You receive ORCA, which is the product of decades of hard work by many enthusiastic individuals, for free
The only thing we kindly ask in return is that you cite our papers,
We deeply appreciate it, if you show your appreciation for ORCA by not just citing the generic ORCA reference.

Please note that relegating all ORCA citations to the supporting information does *not* help us.
SI sections are not indexed - citations you put there will not count into any citation statistics
But we need these citations in order to attract the funding resources that allow us to do what we are doing

Therefore, if you are a happy ORCA user, please consider citing a few of the papers listed below in the main body of your paper

In addition to the list printed below, the program has created the file ./../Data/ethanol_edited.bibtex that contains the list in bibtex format
You can import this file easily into all common literature databanks and citation aid programs


List of essential papers. We consider these as the minimum necessary citations

  1. Neese,F.
     Software update: the ORCA program system, version 5.0
     WIRES Comput. Molec. Sci., 2022 12(1)e1606
     doi.org/10.1002/wcms.1606

List of papers to cite with high priority. The work reported in these papers was absolutely
necessary for this run to complete.
Our perspective: the developers of density functionals and basis sets usually get cited in chemistry papers
Good! But without the algorithms to do something with them, the functionals or basis sets would not do anything.
Hence, in our opinion, the algorithm design and method developments papers are equally worthy of getting cited

  1. Neese,F.
     An improvement of the resolution of the identity approximation for the formation of the Coulomb matrix
     J. Comp. Chem., 2003 24(14)1740-1747
     doi.org/10.1002/jcc.10318
  2. Bykov,D.; Petrenko,T.; Izsak,R.; Kossmann,S.; Becker,U.; Valeev,E.; Neese,F.
     Efficient implementation of the analytic second derivatives of Hartree-Fock and hybrid DFT energies: a detailed analysis of different approximations
     Molec. Phys., 2015 113 1961-1977
     doi.org/10.1080/00268976.2015.1025114
  3. Neese,F.
     The SHARK Integral Generation and Digestion System
     J. Comp. Chem., 2022  1-16
     doi.org/10.1002/jcc.26942

List of suggested additional citations. These are papers that are important in the 'surrounding' of 
of this run, or papers that preceded the highly important papers. If you like your results we are grateful for a citation.

  1. Neese,F.
     The ORCA program system
     WIRES Comput. Molec. Sci., 2012 2(1)73-78
     doi.org/10.1002/wcms.81
  2. Neese,F.
     Software update: the ORCA program system, version 4.0
     WIRES Comput. Molec. Sci., 2018 8(1)1-6
     doi.org/10.1002/wcms.1327
  3. Neese,F.; Wennmohs,F.; Becker,U.; Riplinger,C.
     The ORCA quantum chemistry program package
     J. Chem. Phys., 2020 152 Art. No. L224108
     doi.org/10.1063/5.0004608

List of optional additional citations

  1. Neese,F.
     Approximate second-order SCF convergence for spin unrestricted wavefunctions
     Chem. Phys. Lett., 2000 325(1-3)93-98
     doi.org/10.1016/s0009-2614(00)00662-x

Timings for individual modules:

Sum of individual times          ...       88.563 sec (=   1.476 min)
Startup calculation              ...        0.333 sec (=   0.006 min)   0.4 %
SCF iterations                   ...        0.597 sec (=   0.010 min)   0.7 %
Property calculations            ...        0.032 sec (=   0.001 min)   0.0 %
SCF Gradient evaluation          ...        1.383 sec (=   0.023 min)   1.6 %
Numerical frequency calculation  ...       86.218 sec (=   1.437 min)  97.4 %
                             ****ORCA TERMINATED NORMALLY****
TOTAL RUN TIME: 0 days 0 hours 1 minutes 27 seconds 425 msec
